# Region type : surface top
# Faces       : 92
# Area        : 1.953640e-06
# Scale factor: 1.000000e+00
# Time        	Area	areaAverage(nusseltOneMean)	areaAverage(nusseltTwoMean)	areaAverage(nusseltTotalMean)
30            	1.953640e-06	1.241801e+00	-1.333689e+00	2.575491e+00
30.0033       	1.953640e-06	1.241802e+00	-1.333690e+00	2.575492e+00
30.0066       	1.953640e-06	1.241803e+00	-1.333690e+00	2.575493e+00
30.0099       	1.953640e-06	1.241804e+00	-1.333690e+00	2.575495e+00
30.0133       	1.953640e-06	1.241805e+00	-1.333691e+00	2.575496e+00
30.0166       	1.953640e-06	1.241806e+00	-1.333691e+00	2.575497e+00
30.0199       	1.953640e-06	1.241807e+00	-1.333691e+00	2.575498e+00
30.0232       	1.953640e-06	1.241808e+00	-1.333691e+00	2.575500e+00
30.0265       	1.953640e-06	1.241809e+00	-1.333692e+00	2.575501e+00
30.0298       	1.953640e-06	1.241810e+00	-1.333692e+00	2.575502e+00
30.0332       	1.953640e-06	1.241811e+00	-1.333692e+00	2.575503e+00
30.0365       	1.953640e-06	1.241812e+00	-1.333693e+00	2.575505e+00
30.0398       	1.953640e-06	1.241813e+00	-1.333693e+00	2.575506e+00
30.0431       	1.953640e-06	1.241814e+00	-1.333693e+00	2.575507e+00
30.0464       	1.953640e-06	1.241815e+00	-1.333693e+00	2.575508e+00
30.0497       	1.953640e-06	1.241816e+00	-1.333694e+00	2.575510e+00
30.0531       	1.953640e-06	1.241817e+00	-1.333694e+00	2.575511e+00
30.0564       	1.953640e-06	1.241818e+00	-1.333694e+00	2.575512e+00
30.0597       	1.953640e-06	1.241819e+00	-1.333695e+00	2.575513e+00
30.063        	1.953640e-06	1.241820e+00	-1.333695e+00	2.575515e+00
30.0663       	1.953640e-06	1.241821e+00	-1.333695e+00	2.575516e+00
30.0696       	1.953640e-06	1.241822e+00	-1.333695e+00	2.575517e+00
30.0729       	1.953640e-06	1.241823e+00	-1.333696e+00	2.575518e+00
30.0763       	1.953640e-06	1.241824e+00	-1.333696e+00	2.575520e+00
30.0796       	1.953640e-06	1.241825e+00	-1.333696e+00	2.575521e+00
30.0829       	1.953640e-06	1.241826e+00	-1.333697e+00	2.575522e+00
30.0862       	1.953640e-06	1.241826e+00	-1.333697e+00	2.575523e+00
30.0895       	1.953640e-06	1.241827e+00	-1.333697e+00	2.575525e+00
30.0928       	1.953640e-06	1.241828e+00	-1.333697e+00	2.575526e+00
30.0962       	1.953640e-06	1.241829e+00	-1.333698e+00	2.575527e+00
30.0995       	1.953640e-06	1.241830e+00	-1.333698e+00	2.575528e+00
30.1028       	1.953640e-06	1.241831e+00	-1.333698e+00	2.575529e+00
30.1061       	1.953640e-06	1.241832e+00	-1.333699e+00	2.575531e+00
30.1094       	1.953640e-06	1.241833e+00	-1.333699e+00	2.575532e+00
30.1127       	1.953640e-06	1.241834e+00	-1.333699e+00	2.575533e+00
30.116        	1.953640e-06	1.241835e+00	-1.333699e+00	2.575534e+00
30.1194       	1.953640e-06	1.241836e+00	-1.333700e+00	2.575535e+00
30.1227       	1.953640e-06	1.241837e+00	-1.333700e+00	2.575537e+00
30.126        	1.953640e-06	1.241838e+00	-1.333700e+00	2.575538e+00
30.1293       	1.953640e-06	1.241838e+00	-1.333700e+00	2.575539e+00
30.1326       	1.953640e-06	1.241839e+00	-1.333701e+00	2.575540e+00
30.1359       	1.953640e-06	1.241840e+00	-1.333701e+00	2.575541e+00
30.1393       	1.953640e-06	1.241841e+00	-1.333701e+00	2.575542e+00
30.1426       	1.953640e-06	1.241842e+00	-1.333702e+00	2.575544e+00
30.1459       	1.953640e-06	1.241843e+00	-1.333702e+00	2.575545e+00
30.1492       	1.953640e-06	1.241844e+00	-1.333702e+00	2.575546e+00
30.1525       	1.953640e-06	1.241845e+00	-1.333702e+00	2.575547e+00
30.1558       	1.953640e-06	1.241846e+00	-1.333703e+00	2.575548e+00
30.1592       	1.953640e-06	1.241847e+00	-1.333703e+00	2.575549e+00
30.1625       	1.953640e-06	1.241847e+00	-1.333703e+00	2.575551e+00
30.1658       	1.953640e-06	1.241848e+00	-1.333703e+00	2.575552e+00
30.1691       	1.953640e-06	1.241849e+00	-1.333704e+00	2.575553e+00
30.1724       	1.953640e-06	1.241850e+00	-1.333704e+00	2.575554e+00
30.1757       	1.953640e-06	1.241851e+00	-1.333704e+00	2.575555e+00
30.179        	1.953640e-06	1.241852e+00	-1.333705e+00	2.575556e+00
30.1824       	1.953640e-06	1.241853e+00	-1.333705e+00	2.575557e+00
30.1857       	1.953640e-06	1.241854e+00	-1.333705e+00	2.575559e+00
30.189        	1.953640e-06	1.241854e+00	-1.333705e+00	2.575560e+00
30.1923       	1.953640e-06	1.241855e+00	-1.333706e+00	2.575561e+00
30.1956       	1.953640e-06	1.241856e+00	-1.333706e+00	2.575562e+00
30.1989       	1.953640e-06	1.241857e+00	-1.333706e+00	2.575563e+00
30.2023       	1.953640e-06	1.241858e+00	-1.333706e+00	2.575564e+00
30.2056       	1.953640e-06	1.241859e+00	-1.333707e+00	2.575565e+00
30.2089       	1.953640e-06	1.241860e+00	-1.333707e+00	2.575566e+00
30.2122       	1.953640e-06	1.241860e+00	-1.333707e+00	2.575568e+00
30.2155       	1.953640e-06	1.241861e+00	-1.333707e+00	2.575569e+00
30.2188       	1.953640e-06	1.241862e+00	-1.333708e+00	2.575570e+00
30.2221       	1.953640e-06	1.241863e+00	-1.333708e+00	2.575571e+00
30.2255       	1.953640e-06	1.241864e+00	-1.333708e+00	2.575572e+00
30.2288       	1.953640e-06	1.241865e+00	-1.333708e+00	2.575573e+00
30.2321       	1.953640e-06	1.241865e+00	-1.333709e+00	2.575574e+00
30.2354       	1.953640e-06	1.241866e+00	-1.333709e+00	2.575575e+00
30.2387       	1.953640e-06	1.241867e+00	-1.333709e+00	2.575576e+00
30.242        	1.953640e-06	1.241868e+00	-1.333710e+00	2.575577e+00
30.2453       	1.953640e-06	1.241869e+00	-1.333710e+00	2.575579e+00
30.2487       	1.953640e-06	1.241870e+00	-1.333710e+00	2.575580e+00
30.252        	1.953640e-06	1.241870e+00	-1.333710e+00	2.575581e+00
30.2553       	1.953640e-06	1.241871e+00	-1.333711e+00	2.575582e+00
30.2586       	1.953640e-06	1.241872e+00	-1.333711e+00	2.575583e+00
30.2619       	1.953640e-06	1.241873e+00	-1.333711e+00	2.575584e+00
30.2652       	1.953640e-06	1.241874e+00	-1.333711e+00	2.575585e+00
30.2685       	1.953640e-06	1.241874e+00	-1.333712e+00	2.575586e+00
30.2719       	1.953640e-06	1.241875e+00	-1.333712e+00	2.575587e+00
30.2752       	1.953640e-06	1.241876e+00	-1.333712e+00	2.575588e+00
30.2785       	1.953640e-06	1.241877e+00	-1.333712e+00	2.575589e+00
30.2818       	1.953640e-06	1.241878e+00	-1.333713e+00	2.575590e+00
30.2851       	1.953640e-06	1.241878e+00	-1.333713e+00	2.575591e+00
30.2884       	1.953640e-06	1.241879e+00	-1.333713e+00	2.575592e+00
30.2917       	1.953640e-06	1.241880e+00	-1.333713e+00	2.575593e+00
30.295        	1.953640e-06	1.241881e+00	-1.333714e+00	2.575594e+00
30.2984       	1.953640e-06	1.241882e+00	-1.333714e+00	2.575595e+00
30.3017       	1.953640e-06	1.241882e+00	-1.333714e+00	2.575596e+00
30.305        	1.953640e-06	1.241883e+00	-1.333714e+00	2.575597e+00
30.3083       	1.953640e-06	1.241884e+00	-1.333715e+00	2.575599e+00
30.3116       	1.953640e-06	1.241885e+00	-1.333715e+00	2.575600e+00
30.3149       	1.953640e-06	1.241885e+00	-1.333715e+00	2.575601e+00
30.3182       	1.953640e-06	1.241886e+00	-1.333715e+00	2.575602e+00
30.3216       	1.953640e-06	1.241887e+00	-1.333716e+00	2.575603e+00
30.3249       	1.953640e-06	1.241888e+00	-1.333716e+00	2.575604e+00
30.3282       	1.953640e-06	1.241889e+00	-1.333716e+00	2.575605e+00
30.3315       	1.953640e-06	1.241889e+00	-1.333716e+00	2.575606e+00
30.3348       	1.953640e-06	1.241890e+00	-1.333717e+00	2.575607e+00
30.3381       	1.953640e-06	1.241891e+00	-1.333717e+00	2.575608e+00
30.3414       	1.953640e-06	1.241892e+00	-1.333717e+00	2.575609e+00
30.3447       	1.953640e-06	1.241892e+00	-1.333717e+00	2.575610e+00
30.3481       	1.953640e-06	1.241893e+00	-1.333718e+00	2.575611e+00
30.3514       	1.953640e-06	1.241894e+00	-1.333718e+00	2.575612e+00
30.3547       	1.953640e-06	1.241895e+00	-1.333718e+00	2.575613e+00
30.358        	1.953640e-06	1.241895e+00	-1.333718e+00	2.575614e+00
30.3613       	1.953640e-06	1.241896e+00	-1.333718e+00	2.575615e+00
30.3646       	1.953640e-06	1.241897e+00	-1.333719e+00	2.575615e+00
30.3679       	1.953640e-06	1.241898e+00	-1.333719e+00	2.575616e+00
30.3713       	1.953640e-06	1.241898e+00	-1.333719e+00	2.575617e+00
30.3746       	1.953640e-06	1.241899e+00	-1.333719e+00	2.575618e+00
30.3779       	1.953640e-06	1.241900e+00	-1.333720e+00	2.575619e+00
30.3812       	1.953640e-06	1.241900e+00	-1.333720e+00	2.575620e+00
30.3845       	1.953640e-06	1.241901e+00	-1.333720e+00	2.575621e+00
30.3878       	1.953640e-06	1.241902e+00	-1.333720e+00	2.575622e+00
30.3911       	1.953640e-06	1.241903e+00	-1.333721e+00	2.575623e+00
30.3944       	1.953640e-06	1.241903e+00	-1.333721e+00	2.575624e+00
30.3978       	1.953640e-06	1.241904e+00	-1.333721e+00	2.575625e+00
30.4011       	1.953640e-06	1.241905e+00	-1.333721e+00	2.575626e+00
30.4044       	1.953640e-06	1.241905e+00	-1.333722e+00	2.575627e+00
30.4077       	1.953640e-06	1.241906e+00	-1.333722e+00	2.575628e+00
30.411        	1.953640e-06	1.241907e+00	-1.333722e+00	2.575629e+00
30.4143       	1.953640e-06	1.241908e+00	-1.333722e+00	2.575630e+00
30.4176       	1.953640e-06	1.241908e+00	-1.333722e+00	2.575631e+00
30.421        	1.953640e-06	1.241909e+00	-1.333723e+00	2.575632e+00
30.4243       	1.953640e-06	1.241910e+00	-1.333723e+00	2.575633e+00
30.4276       	1.953640e-06	1.241910e+00	-1.333723e+00	2.575633e+00
30.4309       	1.953640e-06	1.241911e+00	-1.333723e+00	2.575634e+00
30.4342       	1.953640e-06	1.241912e+00	-1.333724e+00	2.575635e+00
30.4375       	1.953640e-06	1.241912e+00	-1.333724e+00	2.575636e+00
30.4408       	1.953640e-06	1.241913e+00	-1.333724e+00	2.575637e+00
30.4441       	1.953640e-06	1.241914e+00	-1.333724e+00	2.575638e+00
30.4475       	1.953640e-06	1.241914e+00	-1.333725e+00	2.575639e+00
30.4508       	1.953640e-06	1.241915e+00	-1.333725e+00	2.575640e+00
30.4541       	1.953640e-06	1.241916e+00	-1.333725e+00	2.575641e+00
30.4574       	1.953640e-06	1.241916e+00	-1.333725e+00	2.575642e+00
30.4607       	1.953640e-06	1.241917e+00	-1.333725e+00	2.575643e+00
30.464        	1.953640e-06	1.241918e+00	-1.333726e+00	2.575643e+00
30.4673       	1.953640e-06	1.241918e+00	-1.333726e+00	2.575644e+00
30.4707       	1.953640e-06	1.241919e+00	-1.333726e+00	2.575645e+00
30.474        	1.953640e-06	1.241920e+00	-1.333726e+00	2.575646e+00
30.4773       	1.953640e-06	1.241920e+00	-1.333727e+00	2.575647e+00
30.4806       	1.953640e-06	1.241921e+00	-1.333727e+00	2.575648e+00
30.4839       	1.953640e-06	1.241922e+00	-1.333727e+00	2.575649e+00
30.4872       	1.953640e-06	1.241922e+00	-1.333727e+00	2.575650e+00
30.4905       	1.953640e-06	1.241923e+00	-1.333727e+00	2.575650e+00
30.4938       	1.953640e-06	1.241924e+00	-1.333728e+00	2.575651e+00
30.4972       	1.953640e-06	1.241924e+00	-1.333728e+00	2.575652e+00
30.5005       	1.953640e-06	1.241925e+00	-1.333728e+00	2.575653e+00
30.5038       	1.953640e-06	1.241925e+00	-1.333728e+00	2.575654e+00
30.5071       	1.953640e-06	1.241926e+00	-1.333729e+00	2.575655e+00
30.5104       	1.953640e-06	1.241927e+00	-1.333729e+00	2.575656e+00
30.5137       	1.953640e-06	1.241927e+00	-1.333729e+00	2.575656e+00
30.517        	1.953640e-06	1.241928e+00	-1.333729e+00	2.575657e+00
30.5203       	1.953640e-06	1.241929e+00	-1.333729e+00	2.575658e+00
30.5237       	1.953640e-06	1.241929e+00	-1.333730e+00	2.575659e+00
30.527        	1.953640e-06	1.241930e+00	-1.333730e+00	2.575660e+00
30.5303       	1.953640e-06	1.241930e+00	-1.333730e+00	2.575661e+00
30.5336       	1.953640e-06	1.241931e+00	-1.333730e+00	2.575661e+00
30.5369       	1.953640e-06	1.241932e+00	-1.333731e+00	2.575662e+00
30.5402       	1.953640e-06	1.241932e+00	-1.333731e+00	2.575663e+00
30.5435       	1.953640e-06	1.241933e+00	-1.333731e+00	2.575664e+00
30.5468       	1.953640e-06	1.241934e+00	-1.333731e+00	2.575665e+00
30.5501       	1.953640e-06	1.241934e+00	-1.333731e+00	2.575666e+00
30.5535       	1.953640e-06	1.241935e+00	-1.333732e+00	2.575666e+00
30.5568       	1.953640e-06	1.241935e+00	-1.333732e+00	2.575667e+00
30.5601       	1.953640e-06	1.241936e+00	-1.333732e+00	2.575668e+00
30.5634       	1.953640e-06	1.241936e+00	-1.333732e+00	2.575669e+00
30.5667       	1.953640e-06	1.241937e+00	-1.333732e+00	2.575670e+00
30.57         	1.953640e-06	1.241938e+00	-1.333733e+00	2.575670e+00
30.5733       	1.953640e-06	1.241938e+00	-1.333733e+00	2.575671e+00
30.5766       	1.953640e-06	1.241939e+00	-1.333733e+00	2.575672e+00
30.5799       	1.953640e-06	1.241939e+00	-1.333733e+00	2.575673e+00
30.5833       	1.953640e-06	1.241940e+00	-1.333734e+00	2.575674e+00
30.5866       	1.953640e-06	1.241941e+00	-1.333734e+00	2.575674e+00
30.5899       	1.953640e-06	1.241941e+00	-1.333734e+00	2.575675e+00
30.5932       	1.953640e-06	1.241942e+00	-1.333734e+00	2.575676e+00
30.5965       	1.953640e-06	1.241942e+00	-1.333734e+00	2.575677e+00
30.5998       	1.953640e-06	1.241943e+00	-1.333735e+00	2.575677e+00
30.6031       	1.953640e-06	1.241943e+00	-1.333735e+00	2.575678e+00
30.6064       	1.953640e-06	1.241944e+00	-1.333735e+00	2.575679e+00
30.6097       	1.953640e-06	1.241945e+00	-1.333735e+00	2.575680e+00
30.6131       	1.953640e-06	1.241945e+00	-1.333735e+00	2.575680e+00
30.6164       	1.953640e-06	1.241946e+00	-1.333736e+00	2.575681e+00
30.6197       	1.953640e-06	1.241946e+00	-1.333736e+00	2.575682e+00
30.623        	1.953640e-06	1.241947e+00	-1.333736e+00	2.575683e+00
30.6263       	1.953640e-06	1.241947e+00	-1.333736e+00	2.575683e+00
30.6296       	1.953640e-06	1.241948e+00	-1.333736e+00	2.575684e+00
30.6329       	1.953640e-06	1.241948e+00	-1.333737e+00	2.575685e+00
30.6362       	1.953640e-06	1.241949e+00	-1.333737e+00	2.575686e+00
30.6395       	1.953640e-06	1.241949e+00	-1.333737e+00	2.575686e+00
30.6429       	1.953640e-06	1.241950e+00	-1.333737e+00	2.575687e+00
30.6462       	1.953640e-06	1.241951e+00	-1.333737e+00	2.575688e+00
30.6495       	1.953640e-06	1.241951e+00	-1.333738e+00	2.575689e+00
30.6528       	1.953640e-06	1.241952e+00	-1.333738e+00	2.575689e+00
30.6561       	1.953640e-06	1.241952e+00	-1.333738e+00	2.575690e+00
30.6594       	1.953640e-06	1.241953e+00	-1.333738e+00	2.575691e+00
30.6627       	1.953640e-06	1.241953e+00	-1.333738e+00	2.575692e+00
30.666        	1.953640e-06	1.241954e+00	-1.333739e+00	2.575692e+00
30.6693       	1.953640e-06	1.241954e+00	-1.333739e+00	2.575693e+00
30.6726       	1.953640e-06	1.241955e+00	-1.333739e+00	2.575694e+00
30.676        	1.953640e-06	1.241955e+00	-1.333739e+00	2.575694e+00
30.6793       	1.953640e-06	1.241956e+00	-1.333739e+00	2.575695e+00
30.6826       	1.953640e-06	1.241956e+00	-1.333740e+00	2.575696e+00
30.6859       	1.953640e-06	1.241957e+00	-1.333740e+00	2.575697e+00
30.6892       	1.953640e-06	1.241957e+00	-1.333740e+00	2.575697e+00
30.6925       	1.953640e-06	1.241958e+00	-1.333740e+00	2.575698e+00
30.6958       	1.953640e-06	1.241958e+00	-1.333740e+00	2.575699e+00
30.6991       	1.953640e-06	1.241959e+00	-1.333741e+00	2.575699e+00
30.7024       	1.953640e-06	1.241959e+00	-1.333741e+00	2.575700e+00
30.7058       	1.953640e-06	1.241960e+00	-1.333741e+00	2.575701e+00
30.7091       	1.953640e-06	1.241960e+00	-1.333741e+00	2.575701e+00
30.7124       	1.953640e-06	1.241961e+00	-1.333741e+00	2.575702e+00
30.7157       	1.953640e-06	1.241961e+00	-1.333742e+00	2.575703e+00
30.719        	1.953640e-06	1.241962e+00	-1.333742e+00	2.575703e+00
30.7223       	1.953640e-06	1.241962e+00	-1.333742e+00	2.575704e+00
30.7256       	1.953640e-06	1.241963e+00	-1.333742e+00	2.575705e+00
30.7289       	1.953640e-06	1.241963e+00	-1.333742e+00	2.575705e+00
30.7322       	1.953640e-06	1.241964e+00	-1.333743e+00	2.575706e+00
30.7356       	1.953640e-06	1.241964e+00	-1.333743e+00	2.575707e+00
30.7389       	1.953640e-06	1.241964e+00	-1.333743e+00	2.575707e+00
30.7422       	1.953640e-06	1.241965e+00	-1.333743e+00	2.575708e+00
30.7455       	1.953640e-06	1.241965e+00	-1.333743e+00	2.575709e+00
30.7488       	1.953640e-06	1.241966e+00	-1.333743e+00	2.575709e+00
30.7521       	1.953640e-06	1.241966e+00	-1.333744e+00	2.575710e+00
30.7554       	1.953640e-06	1.241967e+00	-1.333744e+00	2.575711e+00
30.7587       	1.953640e-06	1.241967e+00	-1.333744e+00	2.575711e+00
30.762        	1.953640e-06	1.241968e+00	-1.333744e+00	2.575712e+00
30.7654       	1.953640e-06	1.241968e+00	-1.333744e+00	2.575713e+00
30.7687       	1.953640e-06	1.241969e+00	-1.333745e+00	2.575713e+00
30.772        	1.953640e-06	1.241969e+00	-1.333745e+00	2.575714e+00
30.7753       	1.953640e-06	1.241969e+00	-1.333745e+00	2.575714e+00
30.7786       	1.953640e-06	1.241970e+00	-1.333745e+00	2.575715e+00
30.7819       	1.953640e-06	1.241970e+00	-1.333745e+00	2.575716e+00
30.7852       	1.953640e-06	1.241971e+00	-1.333746e+00	2.575716e+00
30.7885       	1.953640e-06	1.241971e+00	-1.333746e+00	2.575717e+00
30.7918       	1.953640e-06	1.241972e+00	-1.333746e+00	2.575718e+00
30.7952       	1.953640e-06	1.241972e+00	-1.333746e+00	2.575718e+00
30.7985       	1.953640e-06	1.241973e+00	-1.333746e+00	2.575719e+00
30.8018       	1.953640e-06	1.241973e+00	-1.333746e+00	2.575719e+00
30.8051       	1.953640e-06	1.241973e+00	-1.333747e+00	2.575720e+00
30.8084       	1.953640e-06	1.241974e+00	-1.333747e+00	2.575721e+00
30.8117       	1.953640e-06	1.241974e+00	-1.333747e+00	2.575721e+00
30.815        	1.953640e-06	1.241975e+00	-1.333747e+00	2.575722e+00
30.8183       	1.953640e-06	1.241975e+00	-1.333747e+00	2.575722e+00
30.8216       	1.953640e-06	1.241975e+00	-1.333748e+00	2.575723e+00
30.825        	1.953640e-06	1.241976e+00	-1.333748e+00	2.575724e+00
30.8283       	1.953640e-06	1.241976e+00	-1.333748e+00	2.575724e+00
30.8316       	1.953640e-06	1.241977e+00	-1.333748e+00	2.575725e+00
30.8349       	1.953640e-06	1.241977e+00	-1.333748e+00	2.575725e+00
30.8382       	1.953640e-06	1.241977e+00	-1.333748e+00	2.575726e+00
30.8415       	1.953640e-06	1.241978e+00	-1.333749e+00	2.575726e+00
30.8448       	1.953640e-06	1.241978e+00	-1.333749e+00	2.575727e+00
30.8481       	1.953640e-06	1.241979e+00	-1.333749e+00	2.575728e+00
30.8514       	1.953640e-06	1.241979e+00	-1.333749e+00	2.575728e+00
30.8547       	1.953640e-06	1.241979e+00	-1.333749e+00	2.575729e+00
30.858        	1.953640e-06	1.241980e+00	-1.333749e+00	2.575729e+00
30.8613       	1.953640e-06	1.241980e+00	-1.333750e+00	2.575730e+00
30.8647       	1.953640e-06	1.241981e+00	-1.333750e+00	2.575730e+00
30.868        	1.953640e-06	1.241981e+00	-1.333750e+00	2.575731e+00
30.8713       	1.953640e-06	1.241981e+00	-1.333750e+00	2.575732e+00
30.8746       	1.953640e-06	1.241982e+00	-1.333750e+00	2.575732e+00
30.8779       	1.953640e-06	1.241982e+00	-1.333751e+00	2.575733e+00
30.8812       	1.953640e-06	1.241982e+00	-1.333751e+00	2.575733e+00
30.8845       	1.953640e-06	1.241983e+00	-1.333751e+00	2.575734e+00
30.8878       	1.953640e-06	1.241983e+00	-1.333751e+00	2.575734e+00
30.8911       	1.953640e-06	1.241984e+00	-1.333751e+00	2.575735e+00
30.8944       	1.953640e-06	1.241984e+00	-1.333751e+00	2.575735e+00
30.8977       	1.953640e-06	1.241984e+00	-1.333752e+00	2.575736e+00
30.901        	1.953640e-06	1.241985e+00	-1.333752e+00	2.575736e+00
30.9044       	1.953640e-06	1.241985e+00	-1.333752e+00	2.575737e+00
30.9077       	1.953640e-06	1.241985e+00	-1.333752e+00	2.575737e+00
30.911        	1.953640e-06	1.241986e+00	-1.333752e+00	2.575738e+00
30.9143       	1.953640e-06	1.241986e+00	-1.333752e+00	2.575739e+00
30.9176       	1.953640e-06	1.241986e+00	-1.333753e+00	2.575739e+00
30.9209       	1.953640e-06	1.241987e+00	-1.333753e+00	2.575740e+00
30.9242       	1.953640e-06	1.241987e+00	-1.333753e+00	2.575740e+00
30.9275       	1.953640e-06	1.241987e+00	-1.333753e+00	2.575741e+00
30.9308       	1.953640e-06	1.241988e+00	-1.333753e+00	2.575741e+00
30.9341       	1.953640e-06	1.241988e+00	-1.333753e+00	2.575742e+00
30.9374       	1.953640e-06	1.241989e+00	-1.333754e+00	2.575742e+00
30.9407       	1.953640e-06	1.241989e+00	-1.333754e+00	2.575743e+00
30.9441       	1.953640e-06	1.241989e+00	-1.333754e+00	2.575743e+00
30.9474       	1.953640e-06	1.241990e+00	-1.333754e+00	2.575744e+00
30.9507       	1.953640e-06	1.241990e+00	-1.333754e+00	2.575744e+00
30.954        	1.953640e-06	1.241990e+00	-1.333754e+00	2.575745e+00
30.9573       	1.953640e-06	1.241990e+00	-1.333755e+00	2.575745e+00
30.9606       	1.953640e-06	1.241991e+00	-1.333755e+00	2.575746e+00
30.9639       	1.953640e-06	1.241991e+00	-1.333755e+00	2.575746e+00
30.9672       	1.953640e-06	1.241991e+00	-1.333755e+00	2.575747e+00
30.9705       	1.953640e-06	1.241992e+00	-1.333755e+00	2.575747e+00
30.9738       	1.953640e-06	1.241992e+00	-1.333755e+00	2.575747e+00
30.9771       	1.953640e-06	1.241992e+00	-1.333756e+00	2.575748e+00
30.9804       	1.953640e-06	1.241993e+00	-1.333756e+00	2.575748e+00
30.9838       	1.953640e-06	1.241993e+00	-1.333756e+00	2.575749e+00
30.9871       	1.953640e-06	1.241993e+00	-1.333756e+00	2.575749e+00
30.9904       	1.953640e-06	1.241994e+00	-1.333756e+00	2.575750e+00
30.9937       	1.953640e-06	1.241994e+00	-1.333756e+00	2.575750e+00
30.997        	1.953640e-06	1.241994e+00	-1.333757e+00	2.575751e+00
31.0003       	1.953640e-06	1.241995e+00	-1.333757e+00	2.575751e+00
31.0036       	1.953640e-06	1.241995e+00	-1.333757e+00	2.575752e+00
31.0069       	1.953640e-06	1.241995e+00	-1.333757e+00	2.575752e+00
31.0102       	1.953640e-06	1.241995e+00	-1.333757e+00	2.575753e+00
31.0135       	1.953640e-06	1.241996e+00	-1.333757e+00	2.575753e+00
31.0168       	1.953640e-06	1.241996e+00	-1.333757e+00	2.575753e+00
31.0201       	1.953640e-06	1.241996e+00	-1.333758e+00	2.575754e+00
31.0235       	1.953640e-06	1.241997e+00	-1.333758e+00	2.575754e+00
31.0268       	1.953640e-06	1.241997e+00	-1.333758e+00	2.575755e+00
31.0301       	1.953640e-06	1.241997e+00	-1.333758e+00	2.575755e+00
31.0334       	1.953640e-06	1.241997e+00	-1.333758e+00	2.575756e+00
31.0367       	1.953640e-06	1.241998e+00	-1.333758e+00	2.575756e+00
31.04         	1.953640e-06	1.241998e+00	-1.333759e+00	2.575757e+00
31.0433       	1.953640e-06	1.241998e+00	-1.333759e+00	2.575757e+00
31.0466       	1.953640e-06	1.241999e+00	-1.333759e+00	2.575757e+00
31.0499       	1.953640e-06	1.241999e+00	-1.333759e+00	2.575758e+00
31.0532       	1.953640e-06	1.241999e+00	-1.333759e+00	2.575758e+00
31.0565       	1.953640e-06	1.241999e+00	-1.333759e+00	2.575759e+00
31.0598       	1.953640e-06	1.242000e+00	-1.333759e+00	2.575759e+00
31.0632       	1.953640e-06	1.242000e+00	-1.333760e+00	2.575759e+00
31.0665       	1.953640e-06	1.242000e+00	-1.333760e+00	2.575760e+00
31.0698       	1.953640e-06	1.242000e+00	-1.333760e+00	2.575760e+00
31.0731       	1.953640e-06	1.242001e+00	-1.333760e+00	2.575761e+00
31.0764       	1.953640e-06	1.242001e+00	-1.333760e+00	2.575761e+00
31.0797       	1.953640e-06	1.242001e+00	-1.333760e+00	2.575762e+00
31.083        	1.953640e-06	1.242001e+00	-1.333761e+00	2.575762e+00
31.0863       	1.953640e-06	1.242002e+00	-1.333761e+00	2.575762e+00
31.0896       	1.953640e-06	1.242002e+00	-1.333761e+00	2.575763e+00
31.0929       	1.953640e-06	1.242002e+00	-1.333761e+00	2.575763e+00
31.0962       	1.953640e-06	1.242002e+00	-1.333761e+00	2.575763e+00
31.0995       	1.953640e-06	1.242003e+00	-1.333761e+00	2.575764e+00
31.1029       	1.953640e-06	1.242003e+00	-1.333761e+00	2.575764e+00
31.1062       	1.953640e-06	1.242003e+00	-1.333762e+00	2.575765e+00
31.1095       	1.953640e-06	1.242003e+00	-1.333762e+00	2.575765e+00
31.1128       	1.953640e-06	1.242004e+00	-1.333762e+00	2.575765e+00
31.1161       	1.953640e-06	1.242004e+00	-1.333762e+00	2.575766e+00
31.1194       	1.953640e-06	1.242004e+00	-1.333762e+00	2.575766e+00
31.1227       	1.953640e-06	1.242004e+00	-1.333762e+00	2.575767e+00
31.126        	1.953640e-06	1.242004e+00	-1.333762e+00	2.575767e+00
31.1293       	1.953640e-06	1.242005e+00	-1.333763e+00	2.575767e+00
31.1326       	1.953640e-06	1.242005e+00	-1.333763e+00	2.575768e+00
31.1359       	1.953640e-06	1.242005e+00	-1.333763e+00	2.575768e+00
31.1392       	1.953640e-06	1.242005e+00	-1.333763e+00	2.575768e+00
31.1426       	1.953640e-06	1.242006e+00	-1.333763e+00	2.575769e+00
31.1459       	1.953640e-06	1.242006e+00	-1.333763e+00	2.575769e+00
31.1492       	1.953640e-06	1.242006e+00	-1.333764e+00	2.575769e+00
31.1525       	1.953640e-06	1.242006e+00	-1.333764e+00	2.575770e+00
31.1558       	1.953640e-06	1.242006e+00	-1.333764e+00	2.575770e+00
31.1591       	1.953640e-06	1.242007e+00	-1.333764e+00	2.575771e+00
31.1624       	1.953640e-06	1.242007e+00	-1.333764e+00	2.575771e+00
31.1657       	1.953640e-06	1.242007e+00	-1.333764e+00	2.575771e+00
31.169        	1.953640e-06	1.242007e+00	-1.333764e+00	2.575772e+00
31.1723       	1.953640e-06	1.242007e+00	-1.333765e+00	2.575772e+00
31.1756       	1.953640e-06	1.242008e+00	-1.333765e+00	2.575772e+00
31.1789       	1.953640e-06	1.242008e+00	-1.333765e+00	2.575773e+00
31.1823       	1.953640e-06	1.242008e+00	-1.333765e+00	2.575773e+00
31.1856       	1.953640e-06	1.242008e+00	-1.333765e+00	2.575773e+00
31.1889       	1.953640e-06	1.242008e+00	-1.333765e+00	2.575774e+00
31.1922       	1.953640e-06	1.242009e+00	-1.333765e+00	2.575774e+00
31.1955       	1.953640e-06	1.242009e+00	-1.333766e+00	2.575774e+00
31.1988       	1.953640e-06	1.242009e+00	-1.333766e+00	2.575775e+00
31.2021       	1.953640e-06	1.242009e+00	-1.333766e+00	2.575775e+00
31.2054       	1.953640e-06	1.242009e+00	-1.333766e+00	2.575775e+00
31.2087       	1.953640e-06	1.242009e+00	-1.333766e+00	2.575776e+00
31.212        	1.953640e-06	1.242010e+00	-1.333766e+00	2.575776e+00
31.2153       	1.953640e-06	1.242010e+00	-1.333766e+00	2.575776e+00
31.2186       	1.953640e-06	1.242010e+00	-1.333766e+00	2.575776e+00
31.222        	1.953640e-06	1.242010e+00	-1.333767e+00	2.575777e+00
31.2253       	1.953640e-06	1.242010e+00	-1.333767e+00	2.575777e+00
31.2286       	1.953640e-06	1.242011e+00	-1.333767e+00	2.575777e+00
31.2319       	1.953640e-06	1.242011e+00	-1.333767e+00	2.575778e+00
31.2352       	1.953640e-06	1.242011e+00	-1.333767e+00	2.575778e+00
31.2385       	1.953640e-06	1.242011e+00	-1.333767e+00	2.575778e+00
31.2418       	1.953640e-06	1.242011e+00	-1.333767e+00	2.575779e+00
31.2451       	1.953640e-06	1.242011e+00	-1.333768e+00	2.575779e+00
31.2484       	1.953640e-06	1.242011e+00	-1.333768e+00	2.575779e+00
31.2517       	1.953640e-06	1.242012e+00	-1.333768e+00	2.575779e+00
31.255        	1.953640e-06	1.242012e+00	-1.333768e+00	2.575780e+00
31.2583       	1.953640e-06	1.242012e+00	-1.333768e+00	2.575780e+00
31.2616       	1.953640e-06	1.242012e+00	-1.333768e+00	2.575780e+00
31.2649       	1.953640e-06	1.242012e+00	-1.333768e+00	2.575781e+00
31.2682       	1.953640e-06	1.242012e+00	-1.333769e+00	2.575781e+00
31.2715       	1.953640e-06	1.242013e+00	-1.333769e+00	2.575781e+00
31.2748       	1.953640e-06	1.242013e+00	-1.333769e+00	2.575781e+00
31.2782       	1.953640e-06	1.242013e+00	-1.333769e+00	2.575782e+00
31.2815       	1.953640e-06	1.242013e+00	-1.333769e+00	2.575782e+00
31.2848       	1.953640e-06	1.242013e+00	-1.333769e+00	2.575782e+00
31.2881       	1.953640e-06	1.242013e+00	-1.333769e+00	2.575783e+00
31.2914       	1.953640e-06	1.242013e+00	-1.333769e+00	2.575783e+00
31.2947       	1.953640e-06	1.242014e+00	-1.333770e+00	2.575783e+00
31.298        	1.953640e-06	1.242014e+00	-1.333770e+00	2.575783e+00
31.3013       	1.953640e-06	1.242014e+00	-1.333770e+00	2.575784e+00
31.3046       	1.953640e-06	1.242014e+00	-1.333770e+00	2.575784e+00
31.3079       	1.953640e-06	1.242014e+00	-1.333770e+00	2.575784e+00
31.3112       	1.953640e-06	1.242014e+00	-1.333770e+00	2.575784e+00
31.3145       	1.953640e-06	1.242014e+00	-1.333770e+00	2.575785e+00
31.3178       	1.953640e-06	1.242014e+00	-1.333770e+00	2.575785e+00
31.3211       	1.953640e-06	1.242015e+00	-1.333771e+00	2.575785e+00
31.3244       	1.953640e-06	1.242015e+00	-1.333771e+00	2.575785e+00
31.3277       	1.953640e-06	1.242015e+00	-1.333771e+00	2.575786e+00
31.331        	1.953640e-06	1.242015e+00	-1.333771e+00	2.575786e+00
31.3343       	1.953640e-06	1.242015e+00	-1.333771e+00	2.575786e+00
31.3377       	1.953640e-06	1.242015e+00	-1.333771e+00	2.575786e+00
31.341        	1.953640e-06	1.242015e+00	-1.333771e+00	2.575787e+00
31.3443       	1.953640e-06	1.242015e+00	-1.333772e+00	2.575787e+00
31.3476       	1.953640e-06	1.242015e+00	-1.333772e+00	2.575787e+00
31.3509       	1.953640e-06	1.242016e+00	-1.333772e+00	2.575787e+00
31.3542       	1.953640e-06	1.242016e+00	-1.333772e+00	2.575788e+00
31.3575       	1.953640e-06	1.242016e+00	-1.333772e+00	2.575788e+00
31.3608       	1.953640e-06	1.242016e+00	-1.333772e+00	2.575788e+00
31.3641       	1.953640e-06	1.242016e+00	-1.333772e+00	2.575788e+00
31.3674       	1.953640e-06	1.242016e+00	-1.333772e+00	2.575788e+00
31.3707       	1.953640e-06	1.242016e+00	-1.333773e+00	2.575789e+00
31.374        	1.953640e-06	1.242016e+00	-1.333773e+00	2.575789e+00
31.3773       	1.953640e-06	1.242016e+00	-1.333773e+00	2.575789e+00
31.3806       	1.953640e-06	1.242016e+00	-1.333773e+00	2.575789e+00
31.3839       	1.953640e-06	1.242017e+00	-1.333773e+00	2.575790e+00
31.3872       	1.953640e-06	1.242017e+00	-1.333773e+00	2.575790e+00
31.3905       	1.953640e-06	1.242017e+00	-1.333773e+00	2.575790e+00
31.3938       	1.953640e-06	1.242017e+00	-1.333773e+00	2.575790e+00
31.3971       	1.953640e-06	1.242017e+00	-1.333774e+00	2.575790e+00
31.4005       	1.953640e-06	1.242017e+00	-1.333774e+00	2.575791e+00
31.4038       	1.953640e-06	1.242017e+00	-1.333774e+00	2.575791e+00
31.4071       	1.953640e-06	1.242017e+00	-1.333774e+00	2.575791e+00
31.4104       	1.953640e-06	1.242017e+00	-1.333774e+00	2.575791e+00
31.4137       	1.953640e-06	1.242017e+00	-1.333774e+00	2.575791e+00
31.417        	1.953640e-06	1.242017e+00	-1.333774e+00	2.575792e+00
31.4203       	1.953640e-06	1.242017e+00	-1.333774e+00	2.575792e+00
31.4236       	1.953640e-06	1.242018e+00	-1.333775e+00	2.575792e+00
31.4269       	1.953640e-06	1.242018e+00	-1.333775e+00	2.575792e+00
31.4302       	1.953640e-06	1.242018e+00	-1.333775e+00	2.575792e+00
31.4335       	1.953640e-06	1.242018e+00	-1.333775e+00	2.575793e+00
31.4368       	1.953640e-06	1.242018e+00	-1.333775e+00	2.575793e+00
31.4401       	1.953640e-06	1.242018e+00	-1.333775e+00	2.575793e+00
31.4434       	1.953640e-06	1.242018e+00	-1.333775e+00	2.575793e+00
31.4467       	1.953640e-06	1.242018e+00	-1.333775e+00	2.575793e+00