# Region type : surface veryBottom
# Faces       : 92
# Area        : 1.953640e-06
# Scale factor: 1.000000e+00
# Time        	Area	areaAverage(nusseltOneMean)	areaAverage(nusseltTwoMean)	areaAverage(nusseltTotalMean)
30            	1.953640e-06	5.531920e-01	-1.638977e+00	2.192169e+00
30.0057       	1.953640e-06	5.531877e-01	-1.638970e+00	2.192158e+00
30.0114       	1.953640e-06	5.531835e-01	-1.638964e+00	2.192147e+00
30.017        	1.953640e-06	5.531792e-01	-1.638957e+00	2.192136e+00
30.0227       	1.953640e-06	5.531751e-01	-1.638950e+00	2.192125e+00
30.0284       	1.953640e-06	5.531709e-01	-1.638944e+00	2.192114e+00
30.0341       	1.953640e-06	5.531668e-01	-1.638937e+00	2.192104e+00
30.0397       	1.953640e-06	5.531627e-01	-1.638930e+00	2.192093e+00
30.0454       	1.953640e-06	5.531586e-01	-1.638924e+00	2.192082e+00
30.0511       	1.953640e-06	5.531545e-01	-1.638917e+00	2.192072e+00
30.0568       	1.953640e-06	5.531504e-01	-1.638911e+00	2.192061e+00
30.0624       	1.953640e-06	5.531464e-01	-1.638904e+00	2.192050e+00
30.0681       	1.953640e-06	5.531424e-01	-1.638897e+00	2.192040e+00
30.0738       	1.953640e-06	5.531384e-01	-1.638891e+00	2.192029e+00
30.0795       	1.953640e-06	5.531345e-01	-1.638884e+00	2.192019e+00
30.0851       	1.953640e-06	5.531305e-01	-1.638878e+00	2.192008e+00
30.0908       	1.953640e-06	5.531266e-01	-1.638871e+00	2.191998e+00
30.0965       	1.953640e-06	5.531227e-01	-1.638865e+00	2.191988e+00
30.1022       	1.953640e-06	5.531188e-01	-1.638859e+00	2.191977e+00
30.1078       	1.953640e-06	5.531150e-01	-1.638852e+00	2.191967e+00
30.1135       	1.953640e-06	5.531112e-01	-1.638846e+00	2.191957e+00
30.1192       	1.953640e-06	5.531073e-01	-1.638839e+00	2.191947e+00
30.1249       	1.953640e-06	5.531036e-01	-1.638833e+00	2.191937e+00
30.1305       	1.953640e-06	5.530998e-01	-1.638827e+00	2.191926e+00
30.1362       	1.953640e-06	5.530960e-01	-1.638820e+00	2.191916e+00
30.1419       	1.953640e-06	5.530923e-01	-1.638814e+00	2.191906e+00
30.1476       	1.953640e-06	5.530886e-01	-1.638808e+00	2.191896e+00
30.1532       	1.953640e-06	5.530849e-01	-1.638802e+00	2.191886e+00
30.1589       	1.953640e-06	5.530813e-01	-1.638795e+00	2.191877e+00
30.1646       	1.953640e-06	5.530776e-01	-1.638789e+00	2.191867e+00
30.1703       	1.953640e-06	5.530740e-01	-1.638783e+00	2.191857e+00
30.1759       	1.953640e-06	5.530704e-01	-1.638777e+00	2.191847e+00
30.1816       	1.953640e-06	5.530669e-01	-1.638770e+00	2.191837e+00
30.1873       	1.953640e-06	5.530633e-01	-1.638764e+00	2.191828e+00
30.193        	1.953640e-06	5.530598e-01	-1.638758e+00	2.191818e+00
30.1986       	1.953640e-06	5.530563e-01	-1.638752e+00	2.191808e+00
30.2043       	1.953640e-06	5.530528e-01	-1.638746e+00	2.191799e+00
30.21         	1.953640e-06	5.530493e-01	-1.638740e+00	2.191789e+00
30.2157       	1.953640e-06	5.530459e-01	-1.638734e+00	2.191779e+00
30.2213       	1.953640e-06	5.530424e-01	-1.638728e+00	2.191770e+00
30.227        	1.953640e-06	5.530390e-01	-1.638722e+00	2.191761e+00
30.2327       	1.953640e-06	5.530356e-01	-1.638715e+00	2.191751e+00
30.2384       	1.953640e-06	5.530323e-01	-1.638709e+00	2.191742e+00
30.244        	1.953640e-06	5.530289e-01	-1.638703e+00	2.191732e+00
30.2497       	1.953640e-06	5.530256e-01	-1.638697e+00	2.191723e+00
30.2554       	1.953640e-06	5.530223e-01	-1.638692e+00	2.191714e+00
30.2611       	1.953640e-06	5.530190e-01	-1.638686e+00	2.191705e+00
30.2667       	1.953640e-06	5.530158e-01	-1.638680e+00	2.191695e+00
30.2724       	1.953640e-06	5.530125e-01	-1.638674e+00	2.191686e+00
30.2781       	1.953640e-06	5.530093e-01	-1.638668e+00	2.191677e+00
30.2838       	1.953640e-06	5.530061e-01	-1.638662e+00	2.191668e+00
30.2894       	1.953640e-06	5.530029e-01	-1.638656e+00	2.191659e+00
30.2951       	1.953640e-06	5.529998e-01	-1.638650e+00	2.191650e+00
30.3008       	1.953640e-06	5.529967e-01	-1.638644e+00	2.191641e+00
30.3065       	1.953640e-06	5.529935e-01	-1.638639e+00	2.191632e+00
30.3121       	1.953640e-06	5.529904e-01	-1.638633e+00	2.191623e+00
30.3178       	1.953640e-06	5.529874e-01	-1.638627e+00	2.191614e+00
30.3235       	1.953640e-06	5.529843e-01	-1.638621e+00	2.191606e+00
30.3292       	1.953640e-06	5.529813e-01	-1.638616e+00	2.191597e+00
30.3348       	1.953640e-06	5.529783e-01	-1.638610e+00	2.191588e+00
30.3405       	1.953640e-06	5.529753e-01	-1.638604e+00	2.191579e+00
30.3462       	1.953640e-06	5.529723e-01	-1.638598e+00	2.191571e+00
30.3519       	1.953640e-06	5.529693e-01	-1.638593e+00	2.191562e+00
30.3575       	1.953640e-06	5.529664e-01	-1.638587e+00	2.191553e+00
30.3632       	1.953640e-06	5.529635e-01	-1.638581e+00	2.191545e+00
30.3689       	1.953640e-06	5.529606e-01	-1.638576e+00	2.191536e+00
30.3746       	1.953640e-06	5.529577e-01	-1.638570e+00	2.191528e+00
30.3802       	1.953640e-06	5.529549e-01	-1.638565e+00	2.191519e+00
30.3859       	1.953640e-06	5.529520e-01	-1.638559e+00	2.191511e+00
30.3916       	1.953640e-06	5.529492e-01	-1.638553e+00	2.191503e+00
30.3973       	1.953640e-06	5.529464e-01	-1.638548e+00	2.191494e+00
30.403        	1.953640e-06	5.529437e-01	-1.638542e+00	2.191486e+00
30.4086       	1.953640e-06	5.529409e-01	-1.638537e+00	2.191478e+00
30.4143       	1.953640e-06	5.529382e-01	-1.638531e+00	2.191470e+00
30.42         	1.953640e-06	5.529355e-01	-1.638526e+00	2.191461e+00
30.4257       	1.953640e-06	5.529328e-01	-1.638520e+00	2.191453e+00
30.4313       	1.953640e-06	5.529301e-01	-1.638515e+00	2.191445e+00
30.437        	1.953640e-06	5.529274e-01	-1.638510e+00	2.191437e+00
30.4427       	1.953640e-06	5.529248e-01	-1.638504e+00	2.191429e+00
30.4484       	1.953640e-06	5.529222e-01	-1.638499e+00	2.191421e+00
30.454        	1.953640e-06	5.529196e-01	-1.638493e+00	2.191413e+00
30.4597       	1.953640e-06	5.529170e-01	-1.638488e+00	2.191405e+00
30.4654       	1.953640e-06	5.529144e-01	-1.638483e+00	2.191397e+00
30.4711       	1.953640e-06	5.529119e-01	-1.638477e+00	2.191389e+00
30.4767       	1.953640e-06	5.529094e-01	-1.638472e+00	2.191381e+00
30.4824       	1.953640e-06	5.529069e-01	-1.638467e+00	2.191374e+00
30.4881       	1.953640e-06	5.529044e-01	-1.638461e+00	2.191366e+00
30.4938       	1.953640e-06	5.529019e-01	-1.638456e+00	2.191358e+00
30.4994       	1.953640e-06	5.528995e-01	-1.638451e+00	2.191350e+00
30.5051       	1.953640e-06	5.528971e-01	-1.638446e+00	2.191343e+00
30.5108       	1.953640e-06	5.528947e-01	-1.638441e+00	2.191335e+00
30.5165       	1.953640e-06	5.528923e-01	-1.638435e+00	2.191328e+00
30.5221       	1.953640e-06	5.528899e-01	-1.638430e+00	2.191320e+00
30.5278       	1.953640e-06	5.528876e-01	-1.638425e+00	2.191313e+00
30.5335       	1.953640e-06	5.528852e-01	-1.638420e+00	2.191305e+00
30.5392       	1.953640e-06	5.528829e-01	-1.638415e+00	2.191298e+00
30.5448       	1.953640e-06	5.528806e-01	-1.638410e+00	2.191290e+00
30.5505       	1.953640e-06	5.528784e-01	-1.638405e+00	2.191283e+00
30.5562       	1.953640e-06	5.528761e-01	-1.638399e+00	2.191276e+00
30.5619       	1.953640e-06	5.528739e-01	-1.638394e+00	2.191268e+00
30.5675       	1.953640e-06	5.528716e-01	-1.638389e+00	2.191261e+00
30.5732       	1.953640e-06	5.528694e-01	-1.638384e+00	2.191254e+00
30.5789       	1.953640e-06	5.528673e-01	-1.638379e+00	2.191247e+00
30.5846       	1.953640e-06	5.528651e-01	-1.638374e+00	2.191239e+00
30.5902       	1.953640e-06	5.528630e-01	-1.638369e+00	2.191232e+00
30.5959       	1.953640e-06	5.528608e-01	-1.638364e+00	2.191225e+00
30.6016       	1.953640e-06	5.528587e-01	-1.638359e+00	2.191218e+00
30.6073       	1.953640e-06	5.528566e-01	-1.638355e+00	2.191211e+00
30.6129       	1.953640e-06	5.528546e-01	-1.638350e+00	2.191204e+00
30.6186       	1.953640e-06	5.528525e-01	-1.638345e+00	2.191197e+00
30.6243       	1.953640e-06	5.528505e-01	-1.638340e+00	2.191190e+00
30.63         	1.953640e-06	5.528485e-01	-1.638335e+00	2.191183e+00
30.6356       	1.953640e-06	5.528465e-01	-1.638330e+00	2.191177e+00
30.6413       	1.953640e-06	5.528445e-01	-1.638325e+00	2.191170e+00
30.647        	1.953640e-06	5.528425e-01	-1.638320e+00	2.191163e+00
30.6527       	1.953640e-06	5.528406e-01	-1.638316e+00	2.191156e+00
30.6583       	1.953640e-06	5.528387e-01	-1.638311e+00	2.191150e+00
30.664        	1.953640e-06	5.528368e-01	-1.638306e+00	2.191143e+00
30.6697       	1.953640e-06	5.528349e-01	-1.638301e+00	2.191136e+00
30.6754       	1.953640e-06	5.528330e-01	-1.638297e+00	2.191130e+00
30.681        	1.953640e-06	5.528311e-01	-1.638292e+00	2.191123e+00
30.6867       	1.953640e-06	5.528293e-01	-1.638287e+00	2.191116e+00
30.6924       	1.953640e-06	5.528275e-01	-1.638282e+00	2.191110e+00
30.6981       	1.953640e-06	5.528257e-01	-1.638278e+00	2.191103e+00
30.7037       	1.953640e-06	5.528239e-01	-1.638273e+00	2.191097e+00
30.7094       	1.953640e-06	5.528221e-01	-1.638268e+00	2.191091e+00
30.7151       	1.953640e-06	5.528204e-01	-1.638264e+00	2.191084e+00
30.7208       	1.953640e-06	5.528187e-01	-1.638259e+00	2.191078e+00
30.7264       	1.953640e-06	5.528170e-01	-1.638255e+00	2.191072e+00
30.7321       	1.953640e-06	5.528153e-01	-1.638250e+00	2.191065e+00
30.7378       	1.953640e-06	5.528136e-01	-1.638245e+00	2.191059e+00
30.7435       	1.953640e-06	5.528119e-01	-1.638241e+00	2.191053e+00
30.7491       	1.953640e-06	5.528103e-01	-1.638236e+00	2.191047e+00
30.7548       	1.953640e-06	5.528086e-01	-1.638232e+00	2.191041e+00
30.7605       	1.953640e-06	5.528070e-01	-1.638227e+00	2.191034e+00
30.7662       	1.953640e-06	5.528054e-01	-1.638223e+00	2.191028e+00
30.7719       	1.953640e-06	5.528039e-01	-1.638218e+00	2.191022e+00
30.7775       	1.953640e-06	5.528023e-01	-1.638214e+00	2.191016e+00
30.7832       	1.953640e-06	5.528008e-01	-1.638210e+00	2.191010e+00
30.7889       	1.953640e-06	5.527993e-01	-1.638205e+00	2.191004e+00
30.7946       	1.953640e-06	5.527977e-01	-1.638201e+00	2.190998e+00
30.8002       	1.953640e-06	5.527963e-01	-1.638196e+00	2.190993e+00
30.8059       	1.953640e-06	5.527948e-01	-1.638192e+00	2.190987e+00
30.8116       	1.953640e-06	5.527933e-01	-1.638188e+00	2.190981e+00
30.8173       	1.953640e-06	5.527919e-01	-1.638183e+00	2.190975e+00
30.8229       	1.953640e-06	5.527905e-01	-1.638179e+00	2.190969e+00
30.8286       	1.953640e-06	5.527891e-01	-1.638175e+00	2.190964e+00
30.8343       	1.953640e-06	5.527877e-01	-1.638170e+00	2.190958e+00
30.84         	1.953640e-06	5.527863e-01	-1.638166e+00	2.190952e+00
30.8456       	1.953640e-06	5.527849e-01	-1.638162e+00	2.190947e+00
30.8513       	1.953640e-06	5.527836e-01	-1.638157e+00	2.190941e+00
30.857        	1.953640e-06	5.527823e-01	-1.638153e+00	2.190935e+00
30.8627       	1.953640e-06	5.527810e-01	-1.638149e+00	2.190930e+00
30.8683       	1.953640e-06	5.527797e-01	-1.638145e+00	2.190924e+00
30.874        	1.953640e-06	5.527784e-01	-1.638141e+00	2.190919e+00
30.8797       	1.953640e-06	5.527771e-01	-1.638136e+00	2.190914e+00
30.8854       	1.953640e-06	5.527759e-01	-1.638132e+00	2.190908e+00
30.891        	1.953640e-06	5.527747e-01	-1.638128e+00	2.190903e+00
30.8967       	1.953640e-06	5.527735e-01	-1.638124e+00	2.190897e+00
30.9024       	1.953640e-06	5.527723e-01	-1.638120e+00	2.190892e+00
30.9081       	1.953640e-06	5.527711e-01	-1.638116e+00	2.190887e+00
30.9137       	1.953640e-06	5.527699e-01	-1.638112e+00	2.190882e+00
30.9194       	1.953640e-06	5.527688e-01	-1.638108e+00	2.190876e+00
30.9251       	1.953640e-06	5.527677e-01	-1.638104e+00	2.190871e+00
30.9308       	1.953640e-06	5.527666e-01	-1.638099e+00	2.190866e+00
30.9364       	1.953640e-06	5.527655e-01	-1.638095e+00	2.190861e+00
30.9421       	1.953640e-06	5.527644e-01	-1.638091e+00	2.190856e+00
30.9478       	1.953640e-06	5.527633e-01	-1.638087e+00	2.190851e+00
30.9535       	1.953640e-06	5.527623e-01	-1.638083e+00	2.190846e+00
30.9591       	1.953640e-06	5.527612e-01	-1.638079e+00	2.190841e+00
30.9648       	1.953640e-06	5.527602e-01	-1.638076e+00	2.190836e+00
30.9705       	1.953640e-06	5.527592e-01	-1.638072e+00	2.190831e+00
30.9762       	1.953640e-06	5.527582e-01	-1.638068e+00	2.190826e+00
30.9818       	1.953640e-06	5.527572e-01	-1.638064e+00	2.190821e+00
30.9875       	1.953640e-06	5.527563e-01	-1.638060e+00	2.190816e+00
30.9932       	1.953640e-06	5.527553e-01	-1.638056e+00	2.190811e+00
30.9989       	1.953640e-06	5.527544e-01	-1.638052e+00	2.190807e+00
31.0045       	1.953640e-06	5.527535e-01	-1.638048e+00	2.190802e+00
31.0102       	1.953640e-06	5.527526e-01	-1.638044e+00	2.190797e+00
31.0159       	1.953640e-06	5.527517e-01	-1.638041e+00	2.190792e+00
31.0216       	1.953640e-06	5.527509e-01	-1.638037e+00	2.190788e+00
31.0272       	1.953640e-06	5.527500e-01	-1.638033e+00	2.190783e+00
31.0329       	1.953640e-06	5.527492e-01	-1.638029e+00	2.190778e+00
31.0386       	1.953640e-06	5.527484e-01	-1.638025e+00	2.190774e+00
31.0443       	1.953640e-06	5.527476e-01	-1.638022e+00	2.190769e+00
31.0499       	1.953640e-06	5.527468e-01	-1.638018e+00	2.190765e+00
31.0556       	1.953640e-06	5.527460e-01	-1.638014e+00	2.190760e+00
31.0613       	1.953640e-06	5.527452e-01	-1.638011e+00	2.190756e+00
31.067        	1.953640e-06	5.527445e-01	-1.638007e+00	2.190751e+00
31.0726       	1.953640e-06	5.527437e-01	-1.638003e+00	2.190747e+00
31.0783       	1.953640e-06	5.527430e-01	-1.638000e+00	2.190743e+00
31.084        	1.953640e-06	5.527423e-01	-1.637996e+00	2.190738e+00
31.0897       	1.953640e-06	5.527416e-01	-1.637992e+00	2.190734e+00
31.0953       	1.953640e-06	5.527410e-01	-1.637989e+00	2.190730e+00
31.101        	1.953640e-06	5.527403e-01	-1.637985e+00	2.190725e+00
31.1067       	1.953640e-06	5.527397e-01	-1.637981e+00	2.190721e+00
31.1124       	1.953640e-06	5.527390e-01	-1.637978e+00	2.190717e+00
31.118        	1.953640e-06	5.527384e-01	-1.637974e+00	2.190713e+00
31.1237       	1.953640e-06	5.527378e-01	-1.637971e+00	2.190709e+00
31.1294       	1.953640e-06	5.527372e-01	-1.637967e+00	2.190704e+00
31.1351       	1.953640e-06	5.527367e-01	-1.637964e+00	2.190700e+00
31.1407       	1.953640e-06	5.527361e-01	-1.637960e+00	2.190696e+00
31.1464       	1.953640e-06	5.527356e-01	-1.637957e+00	2.190692e+00
31.1521       	1.953640e-06	5.527350e-01	-1.637953e+00	2.190688e+00
31.1578       	1.953640e-06	5.527345e-01	-1.637950e+00	2.190684e+00
31.1635       	1.953640e-06	5.527340e-01	-1.637946e+00	2.190680e+00
31.1691       	1.953640e-06	5.527335e-01	-1.637943e+00	2.190676e+00
31.1748       	1.953640e-06	5.527331e-01	-1.637939e+00	2.190673e+00
31.1805       	1.953640e-06	5.527326e-01	-1.637936e+00	2.190669e+00
31.1862       	1.953640e-06	5.527322e-01	-1.637933e+00	2.190665e+00
31.1918       	1.953640e-06	5.527317e-01	-1.637929e+00	2.190661e+00
31.1975       	1.953640e-06	5.527313e-01	-1.637926e+00	2.190657e+00
31.2032       	1.953640e-06	5.527309e-01	-1.637923e+00	2.190653e+00
31.2089       	1.953640e-06	5.527305e-01	-1.637919e+00	2.190650e+00
31.2145       	1.953640e-06	5.527301e-01	-1.637916e+00	2.190646e+00
31.2202       	1.953640e-06	5.527298e-01	-1.637913e+00	2.190642e+00
31.2259       	1.953640e-06	5.527294e-01	-1.637909e+00	2.190639e+00
31.2316       	1.953640e-06	5.527291e-01	-1.637906e+00	2.190635e+00
31.2372       	1.953640e-06	5.527288e-01	-1.637903e+00	2.190632e+00
31.2429       	1.953640e-06	5.527285e-01	-1.637899e+00	2.190628e+00
31.2486       	1.953640e-06	5.527282e-01	-1.637896e+00	2.190624e+00
31.2543       	1.953640e-06	5.527279e-01	-1.637893e+00	2.190621e+00
31.2599       	1.953640e-06	5.527276e-01	-1.637890e+00	2.190617e+00
31.2656       	1.953640e-06	5.527274e-01	-1.637887e+00	2.190614e+00
31.2713       	1.953640e-06	5.527271e-01	-1.637883e+00	2.190611e+00
31.277        	1.953640e-06	5.527269e-01	-1.637880e+00	2.190607e+00
31.2826       	1.953640e-06	5.527267e-01	-1.637877e+00	2.190604e+00
31.2883       	1.953640e-06	5.527265e-01	-1.637874e+00	2.190600e+00
31.294        	1.953640e-06	5.527263e-01	-1.637871e+00	2.190597e+00
31.2997       	1.953640e-06	5.527261e-01	-1.637868e+00	2.190594e+00
31.3053       	1.953640e-06	5.527259e-01	-1.637865e+00	2.190590e+00
31.311        	1.953640e-06	5.527258e-01	-1.637861e+00	2.190587e+00
31.3167       	1.953640e-06	5.527256e-01	-1.637858e+00	2.190584e+00
31.3224       	1.953640e-06	5.527255e-01	-1.637855e+00	2.190581e+00
31.328        	1.953640e-06	5.527254e-01	-1.637852e+00	2.190578e+00
31.3337       	1.953640e-06	5.527253e-01	-1.637849e+00	2.190575e+00
31.3394       	1.953640e-06	5.527252e-01	-1.637846e+00	2.190571e+00
31.3451       	1.953640e-06	5.527251e-01	-1.637843e+00	2.190568e+00
31.3507       	1.953640e-06	5.527251e-01	-1.637840e+00	2.190565e+00
31.3564       	1.953640e-06	5.527250e-01	-1.637837e+00	2.190562e+00
31.3621       	1.953640e-06	5.527250e-01	-1.637834e+00	2.190559e+00
31.3678       	1.953640e-06	5.527250e-01	-1.637831e+00	2.190556e+00
31.3734       	1.953640e-06	5.527250e-01	-1.637828e+00	2.190553e+00
31.3791       	1.953640e-06	5.527250e-01	-1.637825e+00	2.190550e+00
31.3848       	1.953640e-06	5.527250e-01	-1.637822e+00	2.190547e+00
31.3905       	1.953640e-06	5.527250e-01	-1.637819e+00	2.190544e+00
31.3961       	1.953640e-06	5.527250e-01	-1.637817e+00	2.190542e+00
31.4018       	1.953640e-06	5.527251e-01	-1.637814e+00	2.190539e+00
31.4075       	1.953640e-06	5.527251e-01	-1.637811e+00	2.190536e+00
31.4132       	1.953640e-06	5.527252e-01	-1.637808e+00	2.190533e+00
31.4188       	1.953640e-06	5.527253e-01	-1.637805e+00	2.190530e+00
31.4245       	1.953640e-06	5.527254e-01	-1.637802e+00	2.190528e+00
31.4302       	1.953640e-06	5.527255e-01	-1.637799e+00	2.190525e+00
31.4359       	1.953640e-06	5.527256e-01	-1.637797e+00	2.190522e+00
31.4415       	1.953640e-06	5.527257e-01	-1.637794e+00	2.190520e+00
31.4472       	1.953640e-06	5.527259e-01	-1.637791e+00	2.190517e+00
31.4529       	1.953640e-06	5.527260e-01	-1.637788e+00	2.190514e+00
31.4586       	1.953640e-06	5.527262e-01	-1.637786e+00	2.190512e+00
31.4642       	1.953640e-06	5.527264e-01	-1.637783e+00	2.190509e+00
31.4699       	1.953640e-06	5.527266e-01	-1.637780e+00	2.190507e+00
31.4756       	1.953640e-06	5.527268e-01	-1.637777e+00	2.190504e+00
31.4813       	1.953640e-06	5.527270e-01	-1.637775e+00	2.190502e+00
31.4869       	1.953640e-06	5.527272e-01	-1.637772e+00	2.190499e+00
31.4926       	1.953640e-06	5.527275e-01	-1.637769e+00	2.190497e+00
31.4983       	1.953640e-06	5.527277e-01	-1.637767e+00	2.190494e+00
31.504        	1.953640e-06	5.527280e-01	-1.637764e+00	2.190492e+00
31.5096       	1.953640e-06	5.527282e-01	-1.637761e+00	2.190490e+00
31.5153       	1.953640e-06	5.527285e-01	-1.637759e+00	2.190487e+00
31.521        	1.953640e-06	5.527288e-01	-1.637756e+00	2.190485e+00
31.5267       	1.953640e-06	5.527291e-01	-1.637753e+00	2.190483e+00
31.5323       	1.953640e-06	5.527294e-01	-1.637751e+00	2.190480e+00
31.538        	1.953640e-06	5.527298e-01	-1.637748e+00	2.190478e+00
31.5437       	1.953640e-06	5.527301e-01	-1.637746e+00	2.190476e+00
31.5494       	1.953640e-06	5.527304e-01	-1.637743e+00	2.190474e+00
31.5551       	1.953640e-06	5.527308e-01	-1.637741e+00	2.190471e+00
31.5607       	1.953640e-06	5.527312e-01	-1.637738e+00	2.190469e+00
31.5664       	1.953640e-06	5.527316e-01	-1.637735e+00	2.190467e+00
31.5721       	1.953640e-06	5.527319e-01	-1.637733e+00	2.190465e+00
31.5778       	1.953640e-06	5.527323e-01	-1.637730e+00	2.190463e+00
31.5834       	1.953640e-06	5.527328e-01	-1.637728e+00	2.190461e+00
31.5891       	1.953640e-06	5.527332e-01	-1.637725e+00	2.190459e+00
31.5948       	1.953640e-06	5.527336e-01	-1.637723e+00	2.190457e+00
31.6005       	1.953640e-06	5.527341e-01	-1.637721e+00	2.190455e+00
31.6061       	1.953640e-06	5.527345e-01	-1.637718e+00	2.190453e+00
31.6118       	1.953640e-06	5.527350e-01	-1.637716e+00	2.190451e+00
31.6175       	1.953640e-06	5.527355e-01	-1.637713e+00	2.190449e+00
31.6232       	1.953640e-06	5.527360e-01	-1.637711e+00	2.190447e+00
31.6288       	1.953640e-06	5.527364e-01	-1.637708e+00	2.190445e+00
31.6345       	1.953640e-06	5.527370e-01	-1.637706e+00	2.190443e+00
31.6402       	1.953640e-06	5.527375e-01	-1.637704e+00	2.190441e+00
31.6459       	1.953640e-06	5.527380e-01	-1.637701e+00	2.190439e+00
31.6515       	1.953640e-06	5.527385e-01	-1.637699e+00	2.190438e+00
31.6572       	1.953640e-06	5.527391e-01	-1.637697e+00	2.190436e+00
31.6629       	1.953640e-06	5.527396e-01	-1.637694e+00	2.190434e+00
31.6686       	1.953640e-06	5.527402e-01	-1.637692e+00	2.190432e+00
31.6742       	1.953640e-06	5.527408e-01	-1.637690e+00	2.190430e+00
31.6799       	1.953640e-06	5.527414e-01	-1.637687e+00	2.190429e+00
31.6856       	1.953640e-06	5.527420e-01	-1.637685e+00	2.190427e+00
31.6913       	1.953640e-06	5.527426e-01	-1.637683e+00	2.190425e+00
31.6969       	1.953640e-06	5.527432e-01	-1.637681e+00	2.190424e+00
31.7026       	1.953640e-06	5.527438e-01	-1.637678e+00	2.190422e+00
31.7083       	1.953640e-06	5.527445e-01	-1.637676e+00	2.190421e+00
31.714        	1.953640e-06	5.527451e-01	-1.637674e+00	2.190419e+00
31.7196       	1.953640e-06	5.527458e-01	-1.637672e+00	2.190417e+00
31.7253       	1.953640e-06	5.527465e-01	-1.637669e+00	2.190416e+00
31.731        	1.953640e-06	5.527471e-01	-1.637667e+00	2.190414e+00
31.7367       	1.953640e-06	5.527478e-01	-1.637665e+00	2.190413e+00
31.7423       	1.953640e-06	5.527485e-01	-1.637663e+00	2.190411e+00
31.748        	1.953640e-06	5.527492e-01	-1.637661e+00	2.190410e+00
31.7537       	1.953640e-06	5.527499e-01	-1.637659e+00	2.190409e+00
31.7594       	1.953640e-06	5.527507e-01	-1.637656e+00	2.190407e+00
31.765        	1.953640e-06	5.527514e-01	-1.637654e+00	2.190406e+00
31.7707       	1.953640e-06	5.527521e-01	-1.637652e+00	2.190404e+00
31.7764       	1.953640e-06	5.527529e-01	-1.637650e+00	2.190403e+00
31.7821       	1.953640e-06	5.527536e-01	-1.637648e+00	2.190402e+00
31.7877       	1.953640e-06	5.527544e-01	-1.637646e+00	2.190400e+00
31.7934       	1.953640e-06	5.527552e-01	-1.637644e+00	2.190399e+00
31.7991       	1.953640e-06	5.527560e-01	-1.637642e+00	2.190398e+00
31.8048       	1.953640e-06	5.527568e-01	-1.637640e+00	2.190397e+00
31.8104       	1.953640e-06	5.527576e-01	-1.637638e+00	2.190395e+00
31.8161       	1.953640e-06	5.527584e-01	-1.637636e+00	2.190394e+00
31.8218       	1.953640e-06	5.527592e-01	-1.637634e+00	2.190393e+00
31.8275       	1.953640e-06	5.527601e-01	-1.637632e+00	2.190392e+00
31.8331       	1.953640e-06	5.527609e-01	-1.637630e+00	2.190391e+00
31.8388       	1.953640e-06	5.527618e-01	-1.637628e+00	2.190389e+00
31.8445       	1.953640e-06	5.527626e-01	-1.637626e+00	2.190388e+00
31.8502       	1.953640e-06	5.527635e-01	-1.637624e+00	2.190387e+00
31.8558       	1.953640e-06	5.527644e-01	-1.637622e+00	2.190386e+00
31.8615       	1.953640e-06	5.527652e-01	-1.637620e+00	2.190385e+00
31.8672       	1.953640e-06	5.527661e-01	-1.637618e+00	2.190384e+00
31.8729       	1.953640e-06	5.527670e-01	-1.637616e+00	2.190383e+00
31.8785       	1.953640e-06	5.527680e-01	-1.637614e+00	2.190382e+00
31.8842       	1.953640e-06	5.527689e-01	-1.637612e+00	2.190381e+00
31.8899       	1.953640e-06	5.527698e-01	-1.637610e+00	2.190380e+00
31.8956       	1.953640e-06	5.527707e-01	-1.637608e+00	2.190379e+00
31.9012       	1.953640e-06	5.527717e-01	-1.637607e+00	2.190378e+00
31.9069       	1.953640e-06	5.527726e-01	-1.637605e+00	2.190377e+00
31.9126       	1.953640e-06	5.527736e-01	-1.637603e+00	2.190376e+00
31.9183       	1.953640e-06	5.527746e-01	-1.637601e+00	2.190376e+00
31.924        	1.953640e-06	5.527755e-01	-1.637599e+00	2.190375e+00
31.9296       	1.953640e-06	5.527765e-01	-1.637597e+00	2.190374e+00
31.9353       	1.953640e-06	5.527775e-01	-1.637596e+00	2.190373e+00
31.941        	1.953640e-06	5.527785e-01	-1.637594e+00	2.190372e+00
31.9467       	1.953640e-06	5.527795e-01	-1.637592e+00	2.190372e+00
31.9523       	1.953640e-06	5.527805e-01	-1.637590e+00	2.190371e+00
31.958        	1.953640e-06	5.527816e-01	-1.637588e+00	2.190370e+00
31.9637       	1.953640e-06	5.527826e-01	-1.637587e+00	2.190369e+00
31.9694       	1.953640e-06	5.527836e-01	-1.637585e+00	2.190369e+00
31.975        	1.953640e-06	5.527847e-01	-1.637583e+00	2.190368e+00
31.9807       	1.953640e-06	5.527858e-01	-1.637581e+00	2.190367e+00
31.9864       	1.953640e-06	5.527868e-01	-1.637580e+00	2.190367e+00
31.9921       	1.953640e-06	5.527879e-01	-1.637578e+00	2.190366e+00
31.9977       	1.953640e-06	5.527890e-01	-1.637576e+00	2.190365e+00
32.0034       	1.953640e-06	5.527901e-01	-1.637575e+00	2.190365e+00
32.0091       	1.953640e-06	5.527911e-01	-1.637573e+00	2.190364e+00
32.0148       	1.953640e-06	5.527923e-01	-1.637571e+00	2.190364e+00
32.0204       	1.953640e-06	5.527934e-01	-1.637570e+00	2.190363e+00
32.0261       	1.953640e-06	5.527945e-01	-1.637568e+00	2.190362e+00
32.0318       	1.953640e-06	5.527956e-01	-1.637566e+00	2.190362e+00
32.0375       	1.953640e-06	5.527967e-01	-1.637565e+00	2.190361e+00
32.0431       	1.953640e-06	5.527979e-01	-1.637563e+00	2.190361e+00
32.0488       	1.953640e-06	5.527990e-01	-1.637561e+00	2.190361e+00
32.0545       	1.953640e-06	5.528002e-01	-1.637560e+00	2.190360e+00
32.0602       	1.953640e-06	5.528013e-01	-1.637558e+00	2.190360e+00
32.0658       	1.953640e-06	5.528025e-01	-1.637557e+00	2.190359e+00
32.0715       	1.953640e-06	5.528037e-01	-1.637555e+00	2.190359e+00
32.0772       	1.953640e-06	5.528049e-01	-1.637554e+00	2.190358e+00
32.0829       	1.953640e-06	5.528060e-01	-1.637552e+00	2.190358e+00
32.0885       	1.953640e-06	5.528072e-01	-1.637550e+00	2.190358e+00
32.0942       	1.953640e-06	5.528084e-01	-1.637549e+00	2.190357e+00
32.0999       	1.953640e-06	5.528097e-01	-1.637547e+00	2.190357e+00
32.1056       	1.953640e-06	5.528109e-01	-1.637546e+00	2.190357e+00
32.1112       	1.953640e-06	5.528121e-01	-1.637544e+00	2.190356e+00
32.1169       	1.953640e-06	5.528133e-01	-1.637543e+00	2.190356e+00
32.1226       	1.953640e-06	5.528146e-01	-1.637541e+00	2.190356e+00
32.1283       	1.953640e-06	5.528158e-01	-1.637540e+00	2.190356e+00
32.1339       	1.953640e-06	5.528171e-01	-1.637538e+00	2.190355e+00
32.1396       	1.953640e-06	5.528183e-01	-1.637537e+00	2.190355e+00
32.1453       	1.953640e-06	5.528196e-01	-1.637535e+00	2.190355e+00
32.151        	1.953640e-06	5.528208e-01	-1.637534e+00	2.190355e+00
32.1566       	1.953640e-06	5.528221e-01	-1.637533e+00	2.190355e+00
32.1623       	1.953640e-06	5.528234e-01	-1.637531e+00	2.190355e+00
32.168        	1.953640e-06	5.528247e-01	-1.637530e+00	2.190354e+00
32.1737       	1.953640e-06	5.528260e-01	-1.637528e+00	2.190354e+00
32.1793       	1.953640e-06	5.528273e-01	-1.637527e+00	2.190354e+00
32.185        	1.953640e-06	5.528286e-01	-1.637526e+00	2.190354e+00
32.1907       	1.953640e-06	5.528299e-01	-1.637524e+00	2.190354e+00
32.1964       	1.953640e-06	5.528312e-01	-1.637523e+00	2.190354e+00
32.202        	1.953640e-06	5.528326e-01	-1.637521e+00	2.190354e+00
32.2077       	1.953640e-06	5.528339e-01	-1.637520e+00	2.190354e+00
32.2134       	1.953640e-06	5.528352e-01	-1.637519e+00	2.190354e+00
32.2191       	1.953640e-06	5.528366e-01	-1.637517e+00	2.190354e+00
32.2247       	1.953640e-06	5.528379e-01	-1.637516e+00	2.190354e+00
32.2304       	1.953640e-06	5.528393e-01	-1.637515e+00	2.190354e+00
32.2361       	1.953640e-06	5.528406e-01	-1.637513e+00	2.190354e+00
32.2418       	1.953640e-06	5.528420e-01	-1.637512e+00	2.190354e+00
32.2474       	1.953640e-06	5.528434e-01	-1.637511e+00	2.190354e+00
32.2531       	1.953640e-06	5.528448e-01	-1.637509e+00	2.190354e+00
32.2588       	1.953640e-06	5.528462e-01	-1.637508e+00	2.190354e+00
32.2645       	1.953640e-06	5.528475e-01	-1.637507e+00	2.190354e+00
32.2701       	1.953640e-06	5.528489e-01	-1.637506e+00	2.190355e+00
32.2758       	1.953640e-06	5.528504e-01	-1.637504e+00	2.190355e+00
32.2815       	1.953640e-06	5.528518e-01	-1.637503e+00	2.190355e+00
32.2872       	1.953640e-06	5.528532e-01	-1.637502e+00	2.190355e+00
32.2928       	1.953640e-06	5.528546e-01	-1.637501e+00	2.190355e+00
32.2985       	1.953640e-06	5.528560e-01	-1.637499e+00	2.190355e+00
32.3042       	1.953640e-06	5.528575e-01	-1.637498e+00	2.190356e+00
32.3099       	1.953640e-06	5.528589e-01	-1.637497e+00	2.190356e+00
32.3156       	1.953640e-06	5.528603e-01	-1.637496e+00	2.190356e+00
32.3212       	1.953640e-06	5.528618e-01	-1.637495e+00	2.190356e+00
32.3269       	1.953640e-06	5.528632e-01	-1.637493e+00	2.190357e+00
32.3326       	1.953640e-06	5.528647e-01	-1.637492e+00	2.190357e+00
32.3383       	1.953640e-06	5.528662e-01	-1.637491e+00	2.190357e+00
32.3439       	1.953640e-06	5.528676e-01	-1.637490e+00	2.190358e+00
32.3496       	1.953640e-06	5.528691e-01	-1.637489e+00	2.190358e+00
32.3553       	1.953640e-06	5.528706e-01	-1.637488e+00	2.190358e+00
32.361        	1.953640e-06	5.528721e-01	-1.637487e+00	2.190359e+00
32.3666       	1.953640e-06	5.528735e-01	-1.637485e+00	2.190359e+00
32.3723       	1.953640e-06	5.528750e-01	-1.637484e+00	2.190359e+00
32.378        	1.953640e-06	5.528765e-01	-1.637483e+00	2.190360e+00
32.3837       	1.953640e-06	5.528780e-01	-1.637482e+00	2.190360e+00
32.3893       	1.953640e-06	5.528796e-01	-1.637481e+00	2.190361e+00
32.395        	1.953640e-06	5.528811e-01	-1.637480e+00	2.190361e+00
32.4007       	1.953640e-06	5.528826e-01	-1.637479e+00	2.190361e+00
32.4064       	1.953640e-06	5.528841e-01	-1.637478e+00	2.190362e+00
32.412        	1.953640e-06	5.528856e-01	-1.637477e+00	2.190362e+00
32.4177       	1.953640e-06	5.528872e-01	-1.637476e+00	2.190363e+00
32.4234       	1.953640e-06	5.528887e-01	-1.637475e+00	2.190363e+00
32.4291       	1.953640e-06	5.528903e-01	-1.637474e+00	2.190364e+00
32.4347       	1.953640e-06	5.528918e-01	-1.637472e+00	2.190364e+00
32.4404       	1.953640e-06	5.528934e-01	-1.637471e+00	2.190365e+00
32.4461       	1.953640e-06	5.528949e-01	-1.637470e+00	2.190365e+00
32.4518       	1.953640e-06	5.528965e-01	-1.637469e+00	2.190366e+00
32.4574       	1.953640e-06	5.528980e-01	-1.637468e+00	2.190366e+00
32.4631       	1.953640e-06	5.528996e-01	-1.637467e+00	2.190367e+00
32.4688       	1.953640e-06	5.529012e-01	-1.637466e+00	2.190368e+00
32.4745       	1.953640e-06	5.529028e-01	-1.637465e+00	2.190368e+00