# Region type : surface top
# Faces       : 92
# Area        : 1.953640e-06
# Scale factor: 1.000000e+00
# Time        	Area	areaAverage(nusseltOneMean)	areaAverage(nusseltTwoMean)	areaAverage(nusseltTotalMean)
30            	1.953640e-06	8.504281e-01	-1.254367e+00	2.104795e+00
30.0057       	1.953640e-06	8.504284e-01	-1.254367e+00	2.104796e+00
30.0114       	1.953640e-06	8.504289e-01	-1.254368e+00	2.104797e+00
30.017        	1.953640e-06	8.504293e-01	-1.254369e+00	2.104798e+00
30.0227       	1.953640e-06	8.504297e-01	-1.254370e+00	2.104800e+00
30.0284       	1.953640e-06	8.504302e-01	-1.254371e+00	2.104801e+00
30.0341       	1.953640e-06	8.504307e-01	-1.254372e+00	2.104802e+00
30.0397       	1.953640e-06	8.504312e-01	-1.254372e+00	2.104804e+00
30.0454       	1.953640e-06	8.504318e-01	-1.254373e+00	2.104805e+00
30.0511       	1.953640e-06	8.504323e-01	-1.254374e+00	2.104807e+00
30.0568       	1.953640e-06	8.504329e-01	-1.254375e+00	2.104808e+00
30.0624       	1.953640e-06	8.504335e-01	-1.254376e+00	2.104809e+00
30.0681       	1.953640e-06	8.504341e-01	-1.254377e+00	2.104811e+00
30.0738       	1.953640e-06	8.504348e-01	-1.254378e+00	2.104812e+00
30.0795       	1.953640e-06	8.504354e-01	-1.254379e+00	2.104814e+00
30.0851       	1.953640e-06	8.504361e-01	-1.254379e+00	2.104815e+00
30.0908       	1.953640e-06	8.504368e-01	-1.254380e+00	2.104817e+00
30.0965       	1.953640e-06	8.504375e-01	-1.254381e+00	2.104819e+00
30.1022       	1.953640e-06	8.504383e-01	-1.254382e+00	2.104820e+00
30.1078       	1.953640e-06	8.504390e-01	-1.254383e+00	2.104822e+00
30.1135       	1.953640e-06	8.504398e-01	-1.254384e+00	2.104824e+00
30.1192       	1.953640e-06	8.504406e-01	-1.254385e+00	2.104825e+00
30.1249       	1.953640e-06	8.504414e-01	-1.254386e+00	2.104827e+00
30.1305       	1.953640e-06	8.504422e-01	-1.254387e+00	2.104829e+00
30.1362       	1.953640e-06	8.504431e-01	-1.254387e+00	2.104831e+00
30.1419       	1.953640e-06	8.504440e-01	-1.254388e+00	2.104832e+00
30.1476       	1.953640e-06	8.504449e-01	-1.254389e+00	2.104834e+00
30.1532       	1.953640e-06	8.504458e-01	-1.254390e+00	2.104836e+00
30.1589       	1.953640e-06	8.504467e-01	-1.254391e+00	2.104838e+00
30.1646       	1.953640e-06	8.504477e-01	-1.254392e+00	2.104840e+00
30.1703       	1.953640e-06	8.504486e-01	-1.254393e+00	2.104842e+00
30.1759       	1.953640e-06	8.504496e-01	-1.254394e+00	2.104843e+00
30.1816       	1.953640e-06	8.504506e-01	-1.254395e+00	2.104845e+00
30.1873       	1.953640e-06	8.504516e-01	-1.254396e+00	2.104847e+00
30.193        	1.953640e-06	8.504527e-01	-1.254397e+00	2.104849e+00
30.1986       	1.953640e-06	8.504538e-01	-1.254398e+00	2.104851e+00
30.2043       	1.953640e-06	8.504548e-01	-1.254399e+00	2.104853e+00
30.21         	1.953640e-06	8.504559e-01	-1.254399e+00	2.104855e+00
30.2157       	1.953640e-06	8.504571e-01	-1.254400e+00	2.104857e+00
30.2213       	1.953640e-06	8.504582e-01	-1.254401e+00	2.104860e+00
30.227        	1.953640e-06	8.504593e-01	-1.254402e+00	2.104862e+00
30.2327       	1.953640e-06	8.504605e-01	-1.254403e+00	2.104864e+00
30.2384       	1.953640e-06	8.504617e-01	-1.254404e+00	2.104866e+00
30.244        	1.953640e-06	8.504629e-01	-1.254405e+00	2.104868e+00
30.2497       	1.953640e-06	8.504642e-01	-1.254406e+00	2.104870e+00
30.2554       	1.953640e-06	8.504654e-01	-1.254407e+00	2.104873e+00
30.2611       	1.953640e-06	8.504667e-01	-1.254408e+00	2.104875e+00
30.2667       	1.953640e-06	8.504680e-01	-1.254409e+00	2.104877e+00
30.2724       	1.953640e-06	8.504693e-01	-1.254410e+00	2.104879e+00
30.2781       	1.953640e-06	8.504706e-01	-1.254411e+00	2.104882e+00
30.2838       	1.953640e-06	8.504719e-01	-1.254412e+00	2.104884e+00
30.2894       	1.953640e-06	8.504733e-01	-1.254413e+00	2.104886e+00
30.2951       	1.953640e-06	8.504747e-01	-1.254414e+00	2.104889e+00
30.3008       	1.953640e-06	8.504761e-01	-1.254415e+00	2.104891e+00
30.3065       	1.953640e-06	8.504775e-01	-1.254416e+00	2.104893e+00
30.3121       	1.953640e-06	8.504789e-01	-1.254417e+00	2.104896e+00
30.3178       	1.953640e-06	8.504803e-01	-1.254418e+00	2.104898e+00
30.3235       	1.953640e-06	8.504818e-01	-1.254419e+00	2.104901e+00
30.3292       	1.953640e-06	8.504833e-01	-1.254420e+00	2.104903e+00
30.3348       	1.953640e-06	8.504848e-01	-1.254421e+00	2.104906e+00
30.3405       	1.953640e-06	8.504863e-01	-1.254422e+00	2.104908e+00
30.3462       	1.953640e-06	8.504878e-01	-1.254423e+00	2.104911e+00
30.3519       	1.953640e-06	8.504894e-01	-1.254424e+00	2.104913e+00
30.3575       	1.953640e-06	8.504910e-01	-1.254425e+00	2.104916e+00
30.3632       	1.953640e-06	8.504925e-01	-1.254426e+00	2.104918e+00
30.3689       	1.953640e-06	8.504941e-01	-1.254427e+00	2.104921e+00
30.3746       	1.953640e-06	8.504958e-01	-1.254428e+00	2.104924e+00
30.3802       	1.953640e-06	8.504974e-01	-1.254429e+00	2.104926e+00
30.3859       	1.953640e-06	8.504991e-01	-1.254430e+00	2.104929e+00
30.3916       	1.953640e-06	8.505007e-01	-1.254431e+00	2.104932e+00
30.3973       	1.953640e-06	8.505024e-01	-1.254432e+00	2.104935e+00
30.403        	1.953640e-06	8.505041e-01	-1.254433e+00	2.104937e+00
30.4086       	1.953640e-06	8.505059e-01	-1.254434e+00	2.104940e+00
30.4143       	1.953640e-06	8.505076e-01	-1.254435e+00	2.104943e+00
30.42         	1.953640e-06	8.505093e-01	-1.254436e+00	2.104946e+00
30.4257       	1.953640e-06	8.505111e-01	-1.254437e+00	2.104948e+00
30.4313       	1.953640e-06	8.505129e-01	-1.254438e+00	2.104951e+00
30.437        	1.953640e-06	8.505147e-01	-1.254439e+00	2.104954e+00
30.4427       	1.953640e-06	8.505165e-01	-1.254440e+00	2.104957e+00
30.4484       	1.953640e-06	8.505184e-01	-1.254441e+00	2.104960e+00
30.454        	1.953640e-06	8.505202e-01	-1.254443e+00	2.104963e+00
30.4597       	1.953640e-06	8.505221e-01	-1.254444e+00	2.104966e+00
30.4654       	1.953640e-06	8.505240e-01	-1.254445e+00	2.104969e+00
30.4711       	1.953640e-06	8.505259e-01	-1.254446e+00	2.104972e+00
30.4767       	1.953640e-06	8.505278e-01	-1.254447e+00	2.104975e+00
30.4824       	1.953640e-06	8.505298e-01	-1.254448e+00	2.104978e+00
30.4881       	1.953640e-06	8.505317e-01	-1.254449e+00	2.104981e+00
30.4938       	1.953640e-06	8.505337e-01	-1.254450e+00	2.104984e+00
30.4994       	1.953640e-06	8.505357e-01	-1.254451e+00	2.104987e+00
30.5051       	1.953640e-06	8.505377e-01	-1.254452e+00	2.104990e+00
30.5108       	1.953640e-06	8.505397e-01	-1.254453e+00	2.104993e+00
30.5165       	1.953640e-06	8.505417e-01	-1.254454e+00	2.104996e+00
30.5221       	1.953640e-06	8.505438e-01	-1.254455e+00	2.104999e+00
30.5278       	1.953640e-06	8.505458e-01	-1.254456e+00	2.105002e+00
30.5335       	1.953640e-06	8.505479e-01	-1.254458e+00	2.105005e+00
30.5392       	1.953640e-06	8.505500e-01	-1.254459e+00	2.105009e+00
30.5448       	1.953640e-06	8.505521e-01	-1.254460e+00	2.105012e+00
30.5505       	1.953640e-06	8.505543e-01	-1.254461e+00	2.105015e+00
30.5562       	1.953640e-06	8.505564e-01	-1.254462e+00	2.105018e+00
30.5619       	1.953640e-06	8.505586e-01	-1.254463e+00	2.105022e+00
30.5675       	1.953640e-06	8.505607e-01	-1.254464e+00	2.105025e+00
30.5732       	1.953640e-06	8.505629e-01	-1.254465e+00	2.105028e+00
30.5789       	1.953640e-06	8.505651e-01	-1.254466e+00	2.105031e+00
30.5846       	1.953640e-06	8.505674e-01	-1.254467e+00	2.105035e+00
30.5902       	1.953640e-06	8.505696e-01	-1.254469e+00	2.105038e+00
30.5959       	1.953640e-06	8.505718e-01	-1.254470e+00	2.105041e+00
30.6016       	1.953640e-06	8.505741e-01	-1.254471e+00	2.105045e+00
30.6073       	1.953640e-06	8.505764e-01	-1.254472e+00	2.105048e+00
30.6129       	1.953640e-06	8.505787e-01	-1.254473e+00	2.105052e+00
30.6186       	1.953640e-06	8.505810e-01	-1.254474e+00	2.105055e+00
30.6243       	1.953640e-06	8.505833e-01	-1.254475e+00	2.105059e+00
30.63         	1.953640e-06	8.505857e-01	-1.254476e+00	2.105062e+00
30.6356       	1.953640e-06	8.505880e-01	-1.254477e+00	2.105065e+00
30.6413       	1.953640e-06	8.505904e-01	-1.254479e+00	2.105069e+00
30.647        	1.953640e-06	8.505928e-01	-1.254480e+00	2.105072e+00
30.6527       	1.953640e-06	8.505952e-01	-1.254481e+00	2.105076e+00
30.6583       	1.953640e-06	8.505976e-01	-1.254482e+00	2.105080e+00
30.664        	1.953640e-06	8.506000e-01	-1.254483e+00	2.105083e+00
30.6697       	1.953640e-06	8.506025e-01	-1.254484e+00	2.105087e+00
30.6754       	1.953640e-06	8.506049e-01	-1.254485e+00	2.105090e+00
30.681        	1.953640e-06	8.506074e-01	-1.254487e+00	2.105094e+00
30.6867       	1.953640e-06	8.506099e-01	-1.254488e+00	2.105098e+00
30.6924       	1.953640e-06	8.506124e-01	-1.254489e+00	2.105101e+00
30.6981       	1.953640e-06	8.506149e-01	-1.254490e+00	2.105105e+00
30.7037       	1.953640e-06	8.506174e-01	-1.254491e+00	2.105109e+00
30.7094       	1.953640e-06	8.506200e-01	-1.254492e+00	2.105112e+00
30.7151       	1.953640e-06	8.506225e-01	-1.254493e+00	2.105116e+00
30.7208       	1.953640e-06	8.506251e-01	-1.254495e+00	2.105120e+00
30.7264       	1.953640e-06	8.506277e-01	-1.254496e+00	2.105123e+00
30.7321       	1.953640e-06	8.506303e-01	-1.254497e+00	2.105127e+00
30.7378       	1.953640e-06	8.506329e-01	-1.254498e+00	2.105131e+00
30.7435       	1.953640e-06	8.506355e-01	-1.254499e+00	2.105135e+00
30.7491       	1.953640e-06	8.506382e-01	-1.254500e+00	2.105138e+00
30.7548       	1.953640e-06	8.506408e-01	-1.254502e+00	2.105142e+00
30.7605       	1.953640e-06	8.506435e-01	-1.254503e+00	2.105146e+00
30.7662       	1.953640e-06	8.506462e-01	-1.254504e+00	2.105150e+00
30.7719       	1.953640e-06	8.506488e-01	-1.254505e+00	2.105154e+00
30.7775       	1.953640e-06	8.506516e-01	-1.254506e+00	2.105158e+00
30.7832       	1.953640e-06	8.506543e-01	-1.254507e+00	2.105162e+00
30.7889       	1.953640e-06	8.506570e-01	-1.254509e+00	2.105166e+00
30.7946       	1.953640e-06	8.506598e-01	-1.254510e+00	2.105169e+00
30.8002       	1.953640e-06	8.506625e-01	-1.254511e+00	2.105173e+00
30.8059       	1.953640e-06	8.506653e-01	-1.254512e+00	2.105177e+00
30.8116       	1.953640e-06	8.506681e-01	-1.254513e+00	2.105181e+00
30.8173       	1.953640e-06	8.506709e-01	-1.254514e+00	2.105185e+00
30.8229       	1.953640e-06	8.506737e-01	-1.254516e+00	2.105189e+00
30.8286       	1.953640e-06	8.506765e-01	-1.254517e+00	2.105193e+00
30.8343       	1.953640e-06	8.506794e-01	-1.254518e+00	2.105197e+00
30.84         	1.953640e-06	8.506822e-01	-1.254519e+00	2.105201e+00
30.8456       	1.953640e-06	8.506851e-01	-1.254520e+00	2.105205e+00
30.8513       	1.953640e-06	8.506879e-01	-1.254522e+00	2.105210e+00
30.857        	1.953640e-06	8.506908e-01	-1.254523e+00	2.105214e+00
30.8627       	1.953640e-06	8.506937e-01	-1.254524e+00	2.105218e+00
30.8683       	1.953640e-06	8.506967e-01	-1.254525e+00	2.105222e+00
30.874        	1.953640e-06	8.506996e-01	-1.254526e+00	2.105226e+00
30.8797       	1.953640e-06	8.507025e-01	-1.254528e+00	2.105230e+00
30.8854       	1.953640e-06	8.507055e-01	-1.254529e+00	2.105234e+00
30.891        	1.953640e-06	8.507084e-01	-1.254530e+00	2.105238e+00
30.8967       	1.953640e-06	8.507114e-01	-1.254531e+00	2.105243e+00
30.9024       	1.953640e-06	8.507144e-01	-1.254532e+00	2.105247e+00
30.9081       	1.953640e-06	8.507174e-01	-1.254534e+00	2.105251e+00
30.9137       	1.953640e-06	8.507204e-01	-1.254535e+00	2.105255e+00
30.9194       	1.953640e-06	8.507234e-01	-1.254536e+00	2.105259e+00
30.9251       	1.953640e-06	8.507265e-01	-1.254537e+00	2.105264e+00
30.9308       	1.953640e-06	8.507295e-01	-1.254538e+00	2.105268e+00
30.9364       	1.953640e-06	8.507326e-01	-1.254540e+00	2.105272e+00
30.9421       	1.953640e-06	8.507357e-01	-1.254541e+00	2.105277e+00
30.9478       	1.953640e-06	8.507387e-01	-1.254542e+00	2.105281e+00
30.9535       	1.953640e-06	8.507418e-01	-1.254543e+00	2.105285e+00
30.9591       	1.953640e-06	8.507450e-01	-1.254545e+00	2.105290e+00
30.9648       	1.953640e-06	8.507481e-01	-1.254546e+00	2.105294e+00
30.9705       	1.953640e-06	8.507512e-01	-1.254547e+00	2.105298e+00
30.9762       	1.953640e-06	8.507543e-01	-1.254548e+00	2.105303e+00
30.9818       	1.953640e-06	8.507575e-01	-1.254549e+00	2.105307e+00
30.9875       	1.953640e-06	8.507607e-01	-1.254551e+00	2.105311e+00
30.9932       	1.953640e-06	8.507638e-01	-1.254552e+00	2.105316e+00
30.9989       	1.953640e-06	8.507670e-01	-1.254553e+00	2.105320e+00
31.0045       	1.953640e-06	8.507702e-01	-1.254554e+00	2.105325e+00
31.0102       	1.953640e-06	8.507734e-01	-1.254556e+00	2.105329e+00
31.0159       	1.953640e-06	8.507767e-01	-1.254557e+00	2.105334e+00
31.0216       	1.953640e-06	8.507799e-01	-1.254558e+00	2.105338e+00
31.0272       	1.953640e-06	8.507832e-01	-1.254559e+00	2.105343e+00
31.0329       	1.953640e-06	8.507864e-01	-1.254561e+00	2.105347e+00
31.0386       	1.953640e-06	8.507897e-01	-1.254562e+00	2.105352e+00
31.0443       	1.953640e-06	8.507930e-01	-1.254563e+00	2.105356e+00
31.0499       	1.953640e-06	8.507962e-01	-1.254564e+00	2.105361e+00
31.0556       	1.953640e-06	8.507995e-01	-1.254566e+00	2.105365e+00
31.0613       	1.953640e-06	8.508029e-01	-1.254567e+00	2.105370e+00
31.067        	1.953640e-06	8.508062e-01	-1.254568e+00	2.105374e+00
31.0726       	1.953640e-06	8.508095e-01	-1.254569e+00	2.105379e+00
31.0783       	1.953640e-06	8.508128e-01	-1.254571e+00	2.105383e+00
31.084        	1.953640e-06	8.508162e-01	-1.254572e+00	2.105388e+00
31.0897       	1.953640e-06	8.508196e-01	-1.254573e+00	2.105393e+00
31.0953       	1.953640e-06	8.508229e-01	-1.254574e+00	2.105397e+00
31.101        	1.953640e-06	8.508263e-01	-1.254576e+00	2.105402e+00
31.1067       	1.953640e-06	8.508297e-01	-1.254577e+00	2.105407e+00
31.1124       	1.953640e-06	8.508331e-01	-1.254578e+00	2.105411e+00
31.118        	1.953640e-06	8.508365e-01	-1.254579e+00	2.105416e+00
31.1237       	1.953640e-06	8.508400e-01	-1.254581e+00	2.105421e+00
31.1294       	1.953640e-06	8.508434e-01	-1.254582e+00	2.105425e+00
31.1351       	1.953640e-06	8.508468e-01	-1.254583e+00	2.105430e+00
31.1407       	1.953640e-06	8.508503e-01	-1.254584e+00	2.105435e+00
31.1464       	1.953640e-06	8.508538e-01	-1.254586e+00	2.105439e+00
31.1521       	1.953640e-06	8.508572e-01	-1.254587e+00	2.105444e+00
31.1578       	1.953640e-06	8.508607e-01	-1.254588e+00	2.105449e+00
31.1635       	1.953640e-06	8.508642e-01	-1.254590e+00	2.105454e+00
31.1691       	1.953640e-06	8.508677e-01	-1.254591e+00	2.105459e+00
31.1748       	1.953640e-06	8.508712e-01	-1.254592e+00	2.105463e+00
31.1805       	1.953640e-06	8.508748e-01	-1.254593e+00	2.105468e+00
31.1862       	1.953640e-06	8.508783e-01	-1.254595e+00	2.105473e+00
31.1918       	1.953640e-06	8.508818e-01	-1.254596e+00	2.105478e+00
31.1975       	1.953640e-06	8.508854e-01	-1.254597e+00	2.105483e+00
31.2032       	1.953640e-06	8.508890e-01	-1.254598e+00	2.105487e+00
31.2089       	1.953640e-06	8.508925e-01	-1.254600e+00	2.105492e+00
31.2145       	1.953640e-06	8.508961e-01	-1.254601e+00	2.105497e+00
31.2202       	1.953640e-06	8.508997e-01	-1.254602e+00	2.105502e+00
31.2259       	1.953640e-06	8.509033e-01	-1.254604e+00	2.105507e+00
31.2316       	1.953640e-06	8.509069e-01	-1.254605e+00	2.105512e+00
31.2372       	1.953640e-06	8.509105e-01	-1.254606e+00	2.105517e+00
31.2429       	1.953640e-06	8.509141e-01	-1.254607e+00	2.105522e+00
31.2486       	1.953640e-06	8.509178e-01	-1.254609e+00	2.105526e+00
31.2543       	1.953640e-06	8.509214e-01	-1.254610e+00	2.105531e+00
31.2599       	1.953640e-06	8.509251e-01	-1.254611e+00	2.105536e+00
31.2656       	1.953640e-06	8.509287e-01	-1.254613e+00	2.105541e+00
31.2713       	1.953640e-06	8.509324e-01	-1.254614e+00	2.105546e+00
31.277        	1.953640e-06	8.509361e-01	-1.254615e+00	2.105551e+00
31.2826       	1.953640e-06	8.509398e-01	-1.254616e+00	2.105556e+00
31.2883       	1.953640e-06	8.509435e-01	-1.254618e+00	2.105561e+00
31.294        	1.953640e-06	8.509472e-01	-1.254619e+00	2.105566e+00
31.2997       	1.953640e-06	8.509509e-01	-1.254620e+00	2.105571e+00
31.3053       	1.953640e-06	8.509546e-01	-1.254622e+00	2.105576e+00
31.311        	1.953640e-06	8.509584e-01	-1.254623e+00	2.105581e+00
31.3167       	1.953640e-06	8.509621e-01	-1.254624e+00	2.105586e+00
31.3224       	1.953640e-06	8.509658e-01	-1.254625e+00	2.105591e+00
31.328        	1.953640e-06	8.509696e-01	-1.254627e+00	2.105596e+00
31.3337       	1.953640e-06	8.509734e-01	-1.254628e+00	2.105601e+00
31.3394       	1.953640e-06	8.509771e-01	-1.254629e+00	2.105607e+00
31.3451       	1.953640e-06	8.509809e-01	-1.254631e+00	2.105612e+00
31.3507       	1.953640e-06	8.509847e-01	-1.254632e+00	2.105617e+00
31.3564       	1.953640e-06	8.509885e-01	-1.254633e+00	2.105622e+00
31.3621       	1.953640e-06	8.509923e-01	-1.254635e+00	2.105627e+00
31.3678       	1.953640e-06	8.509961e-01	-1.254636e+00	2.105632e+00
31.3734       	1.953640e-06	8.510000e-01	-1.254637e+00	2.105637e+00
31.3791       	1.953640e-06	8.510038e-01	-1.254638e+00	2.105642e+00
31.3848       	1.953640e-06	8.510076e-01	-1.254640e+00	2.105647e+00
31.3905       	1.953640e-06	8.510115e-01	-1.254641e+00	2.105653e+00
31.3961       	1.953640e-06	8.510153e-01	-1.254642e+00	2.105658e+00
31.4018       	1.953640e-06	8.510192e-01	-1.254644e+00	2.105663e+00
31.4075       	1.953640e-06	8.510230e-01	-1.254645e+00	2.105668e+00
31.4132       	1.953640e-06	8.510269e-01	-1.254646e+00	2.105673e+00
31.4188       	1.953640e-06	8.510308e-01	-1.254648e+00	2.105678e+00
31.4245       	1.953640e-06	8.510347e-01	-1.254649e+00	2.105684e+00
31.4302       	1.953640e-06	8.510386e-01	-1.254650e+00	2.105689e+00
31.4359       	1.953640e-06	8.510425e-01	-1.254652e+00	2.105694e+00
31.4415       	1.953640e-06	8.510464e-01	-1.254653e+00	2.105699e+00
31.4472       	1.953640e-06	8.510503e-01	-1.254654e+00	2.105705e+00
31.4529       	1.953640e-06	8.510543e-01	-1.254656e+00	2.105710e+00
31.4586       	1.953640e-06	8.510582e-01	-1.254657e+00	2.105715e+00
31.4642       	1.953640e-06	8.510621e-01	-1.254658e+00	2.105720e+00
31.4699       	1.953640e-06	8.510661e-01	-1.254659e+00	2.105726e+00
31.4756       	1.953640e-06	8.510700e-01	-1.254661e+00	2.105731e+00
31.4813       	1.953640e-06	8.510740e-01	-1.254662e+00	2.105736e+00
31.4869       	1.953640e-06	8.510780e-01	-1.254663e+00	2.105741e+00
31.4926       	1.953640e-06	8.510820e-01	-1.254665e+00	2.105747e+00
31.4983       	1.953640e-06	8.510859e-01	-1.254666e+00	2.105752e+00
31.504        	1.953640e-06	8.510899e-01	-1.254667e+00	2.105757e+00
31.5096       	1.953640e-06	8.510939e-01	-1.254669e+00	2.105763e+00
31.5153       	1.953640e-06	8.510979e-01	-1.254670e+00	2.105768e+00
31.521        	1.953640e-06	8.511019e-01	-1.254671e+00	2.105773e+00
31.5267       	1.953640e-06	8.511060e-01	-1.254673e+00	2.105779e+00
31.5323       	1.953640e-06	8.511100e-01	-1.254674e+00	2.105784e+00
31.538        	1.953640e-06	8.511140e-01	-1.254675e+00	2.105789e+00
31.5437       	1.953640e-06	8.511180e-01	-1.254677e+00	2.105795e+00
31.5494       	1.953640e-06	8.511221e-01	-1.254678e+00	2.105800e+00
31.5551       	1.953640e-06	8.511261e-01	-1.254679e+00	2.105805e+00
31.5607       	1.953640e-06	8.511302e-01	-1.254681e+00	2.105811e+00
31.5664       	1.953640e-06	8.511342e-01	-1.254682e+00	2.105816e+00
31.5721       	1.953640e-06	8.511383e-01	-1.254683e+00	2.105822e+00
31.5778       	1.953640e-06	8.511424e-01	-1.254685e+00	2.105827e+00
31.5834       	1.953640e-06	8.511465e-01	-1.254686e+00	2.105832e+00
31.5891       	1.953640e-06	8.511506e-01	-1.254687e+00	2.105838e+00
31.5948       	1.953640e-06	8.511546e-01	-1.254689e+00	2.105843e+00
31.6005       	1.953640e-06	8.511587e-01	-1.254690e+00	2.105849e+00
31.6061       	1.953640e-06	8.511629e-01	-1.254691e+00	2.105854e+00
31.6118       	1.953640e-06	8.511670e-01	-1.254692e+00	2.105859e+00
31.6175       	1.953640e-06	8.511711e-01	-1.254694e+00	2.105865e+00
31.6232       	1.953640e-06	8.511752e-01	-1.254695e+00	2.105870e+00
31.6288       	1.953640e-06	8.511793e-01	-1.254696e+00	2.105876e+00
31.6345       	1.953640e-06	8.511835e-01	-1.254698e+00	2.105881e+00
31.6402       	1.953640e-06	8.511876e-01	-1.254699e+00	2.105887e+00
31.6459       	1.953640e-06	8.511917e-01	-1.254700e+00	2.105892e+00
31.6515       	1.953640e-06	8.511959e-01	-1.254702e+00	2.105898e+00
31.6572       	1.953640e-06	8.512000e-01	-1.254703e+00	2.105903e+00
31.6629       	1.953640e-06	8.512042e-01	-1.254704e+00	2.105909e+00
31.6686       	1.953640e-06	8.512084e-01	-1.254706e+00	2.105914e+00
31.6742       	1.953640e-06	8.512125e-01	-1.254707e+00	2.105920e+00
31.6799       	1.953640e-06	8.512167e-01	-1.254708e+00	2.105925e+00
31.6856       	1.953640e-06	8.512209e-01	-1.254710e+00	2.105931e+00
31.6913       	1.953640e-06	8.512251e-01	-1.254711e+00	2.105936e+00
31.6969       	1.953640e-06	8.512293e-01	-1.254712e+00	2.105942e+00
31.7026       	1.953640e-06	8.512335e-01	-1.254714e+00	2.105947e+00
31.7083       	1.953640e-06	8.512377e-01	-1.254715e+00	2.105953e+00
31.714        	1.953640e-06	8.512419e-01	-1.254716e+00	2.105958e+00
31.7196       	1.953640e-06	8.512461e-01	-1.254718e+00	2.105964e+00
31.7253       	1.953640e-06	8.512503e-01	-1.254719e+00	2.105969e+00
31.731        	1.953640e-06	8.512545e-01	-1.254720e+00	2.105975e+00
31.7367       	1.953640e-06	8.512588e-01	-1.254722e+00	2.105981e+00
31.7423       	1.953640e-06	8.512630e-01	-1.254723e+00	2.105986e+00
31.748        	1.953640e-06	8.512672e-01	-1.254724e+00	2.105992e+00
31.7537       	1.953640e-06	8.512715e-01	-1.254726e+00	2.105997e+00
31.7594       	1.953640e-06	8.512757e-01	-1.254727e+00	2.106003e+00
31.765        	1.953640e-06	8.512800e-01	-1.254728e+00	2.106008e+00
31.7707       	1.953640e-06	8.512842e-01	-1.254730e+00	2.106014e+00
31.7764       	1.953640e-06	8.512885e-01	-1.254731e+00	2.106020e+00
31.7821       	1.953640e-06	8.512927e-01	-1.254732e+00	2.106025e+00
31.7877       	1.953640e-06	8.512970e-01	-1.254734e+00	2.106031e+00
31.7934       	1.953640e-06	8.513013e-01	-1.254735e+00	2.106036e+00
31.7991       	1.953640e-06	8.513056e-01	-1.254736e+00	2.106042e+00
31.8048       	1.953640e-06	8.513099e-01	-1.254738e+00	2.106048e+00
31.8104       	1.953640e-06	8.513141e-01	-1.254739e+00	2.106053e+00
31.8161       	1.953640e-06	8.513184e-01	-1.254740e+00	2.106059e+00
31.8218       	1.953640e-06	8.513227e-01	-1.254742e+00	2.106064e+00
31.8275       	1.953640e-06	8.513270e-01	-1.254743e+00	2.106070e+00
31.8331       	1.953640e-06	8.513313e-01	-1.254744e+00	2.106076e+00
31.8388       	1.953640e-06	8.513356e-01	-1.254746e+00	2.106081e+00
31.8445       	1.953640e-06	8.513399e-01	-1.254747e+00	2.106087e+00
31.8502       	1.953640e-06	8.513443e-01	-1.254748e+00	2.106093e+00
31.8558       	1.953640e-06	8.513486e-01	-1.254750e+00	2.106098e+00
31.8615       	1.953640e-06	8.513529e-01	-1.254751e+00	2.106104e+00
31.8672       	1.953640e-06	8.513572e-01	-1.254752e+00	2.106110e+00
31.8729       	1.953640e-06	8.513615e-01	-1.254754e+00	2.106115e+00
31.8785       	1.953640e-06	8.513659e-01	-1.254755e+00	2.106121e+00
31.8842       	1.953640e-06	8.513702e-01	-1.254756e+00	2.106127e+00
31.8899       	1.953640e-06	8.513746e-01	-1.254758e+00	2.106132e+00
31.8956       	1.953640e-06	8.513789e-01	-1.254759e+00	2.106138e+00
31.9012       	1.953640e-06	8.513833e-01	-1.254760e+00	2.106144e+00
31.9069       	1.953640e-06	8.513876e-01	-1.254762e+00	2.106149e+00
31.9126       	1.953640e-06	8.513920e-01	-1.254763e+00	2.106155e+00
31.9183       	1.953640e-06	8.513963e-01	-1.254764e+00	2.106161e+00
31.924        	1.953640e-06	8.514007e-01	-1.254766e+00	2.106166e+00
31.9296       	1.953640e-06	8.514050e-01	-1.254767e+00	2.106172e+00
31.9353       	1.953640e-06	8.514094e-01	-1.254768e+00	2.106178e+00
31.941        	1.953640e-06	8.514138e-01	-1.254770e+00	2.106184e+00
31.9467       	1.953640e-06	8.514182e-01	-1.254771e+00	2.106189e+00
31.9523       	1.953640e-06	8.514225e-01	-1.254772e+00	2.106195e+00
31.958        	1.953640e-06	8.514269e-01	-1.254774e+00	2.106201e+00
31.9637       	1.953640e-06	8.514313e-01	-1.254775e+00	2.106206e+00
31.9694       	1.953640e-06	8.514357e-01	-1.254776e+00	2.106212e+00
31.975        	1.953640e-06	8.514401e-01	-1.254778e+00	2.106218e+00
31.9807       	1.953640e-06	8.514445e-01	-1.254779e+00	2.106224e+00
31.9864       	1.953640e-06	8.514489e-01	-1.254781e+00	2.106229e+00
31.9921       	1.953640e-06	8.514533e-01	-1.254782e+00	2.106235e+00
31.9977       	1.953640e-06	8.514577e-01	-1.254783e+00	2.106241e+00
32.0034       	1.953640e-06	8.514621e-01	-1.254785e+00	2.106247e+00
32.0091       	1.953640e-06	8.514665e-01	-1.254786e+00	2.106252e+00
32.0148       	1.953640e-06	8.514709e-01	-1.254787e+00	2.106258e+00
32.0204       	1.953640e-06	8.514753e-01	-1.254789e+00	2.106264e+00
32.0261       	1.953640e-06	8.514797e-01	-1.254790e+00	2.106270e+00
32.0318       	1.953640e-06	8.514841e-01	-1.254791e+00	2.106275e+00
32.0375       	1.953640e-06	8.514886e-01	-1.254793e+00	2.106281e+00
32.0431       	1.953640e-06	8.514930e-01	-1.254794e+00	2.106287e+00
32.0488       	1.953640e-06	8.514974e-01	-1.254795e+00	2.106293e+00
32.0545       	1.953640e-06	8.515018e-01	-1.254797e+00	2.106298e+00
32.0602       	1.953640e-06	8.515063e-01	-1.254798e+00	2.106304e+00
32.0658       	1.953640e-06	8.515107e-01	-1.254799e+00	2.106310e+00
32.0715       	1.953640e-06	8.515151e-01	-1.254800e+00	2.106316e+00
32.0772       	1.953640e-06	8.515196e-01	-1.254802e+00	2.106321e+00
32.0829       	1.953640e-06	8.515240e-01	-1.254803e+00	2.106327e+00
32.0885       	1.953640e-06	8.515285e-01	-1.254804e+00	2.106333e+00
32.0942       	1.953640e-06	8.515329e-01	-1.254806e+00	2.106339e+00
32.0999       	1.953640e-06	8.515374e-01	-1.254807e+00	2.106345e+00
32.1056       	1.953640e-06	8.515418e-01	-1.254808e+00	2.106350e+00
32.1112       	1.953640e-06	8.515463e-01	-1.254810e+00	2.106356e+00
32.1169       	1.953640e-06	8.515507e-01	-1.254811e+00	2.106362e+00
32.1226       	1.953640e-06	8.515552e-01	-1.254812e+00	2.106368e+00
32.1283       	1.953640e-06	8.515596e-01	-1.254814e+00	2.106373e+00
32.1339       	1.953640e-06	8.515641e-01	-1.254815e+00	2.106379e+00
32.1396       	1.953640e-06	8.515685e-01	-1.254816e+00	2.106385e+00
32.1453       	1.953640e-06	8.515730e-01	-1.254818e+00	2.106391e+00
32.151        	1.953640e-06	8.515775e-01	-1.254819e+00	2.106397e+00
32.1566       	1.953640e-06	8.515819e-01	-1.254820e+00	2.106402e+00
32.1623       	1.953640e-06	8.515864e-01	-1.254822e+00	2.106408e+00
32.168        	1.953640e-06	8.515909e-01	-1.254823e+00	2.106414e+00
32.1737       	1.953640e-06	8.515953e-01	-1.254824e+00	2.106420e+00
32.1793       	1.953640e-06	8.515998e-01	-1.254826e+00	2.106426e+00
32.185        	1.953640e-06	8.516043e-01	-1.254827e+00	2.106431e+00
32.1907       	1.953640e-06	8.516088e-01	-1.254828e+00	2.106437e+00
32.1964       	1.953640e-06	8.516132e-01	-1.254830e+00	2.106443e+00
32.202        	1.953640e-06	8.516177e-01	-1.254831e+00	2.106449e+00
32.2077       	1.953640e-06	8.516222e-01	-1.254832e+00	2.106455e+00
32.2134       	1.953640e-06	8.516267e-01	-1.254834e+00	2.106460e+00
32.2191       	1.953640e-06	8.516312e-01	-1.254835e+00	2.106466e+00
32.2247       	1.953640e-06	8.516356e-01	-1.254836e+00	2.106472e+00
32.2304       	1.953640e-06	8.516401e-01	-1.254838e+00	2.106478e+00
32.2361       	1.953640e-06	8.516446e-01	-1.254839e+00	2.106484e+00
32.2418       	1.953640e-06	8.516491e-01	-1.254840e+00	2.106489e+00
32.2474       	1.953640e-06	8.516536e-01	-1.254842e+00	2.106495e+00
32.2531       	1.953640e-06	8.516581e-01	-1.254843e+00	2.106501e+00
32.2588       	1.953640e-06	8.516626e-01	-1.254844e+00	2.106507e+00
32.2645       	1.953640e-06	8.516670e-01	-1.254846e+00	2.106513e+00
32.2701       	1.953640e-06	8.516715e-01	-1.254847e+00	2.106518e+00
32.2758       	1.953640e-06	8.516760e-01	-1.254848e+00	2.106524e+00
32.2815       	1.953640e-06	8.516805e-01	-1.254850e+00	2.106530e+00
32.2872       	1.953640e-06	8.516850e-01	-1.254851e+00	2.106536e+00
32.2928       	1.953640e-06	8.516895e-01	-1.254852e+00	2.106542e+00
32.2985       	1.953640e-06	8.516940e-01	-1.254853e+00	2.106547e+00
32.3042       	1.953640e-06	8.516985e-01	-1.254855e+00	2.106553e+00
32.3099       	1.953640e-06	8.517030e-01	-1.254856e+00	2.106559e+00
32.3156       	1.953640e-06	8.517075e-01	-1.254857e+00	2.106565e+00
32.3212       	1.953640e-06	8.517120e-01	-1.254859e+00	2.106571e+00
32.3269       	1.953640e-06	8.517165e-01	-1.254860e+00	2.106577e+00
32.3326       	1.953640e-06	8.517210e-01	-1.254861e+00	2.106582e+00
32.3383       	1.953640e-06	8.517255e-01	-1.254863e+00	2.106588e+00
32.3439       	1.953640e-06	8.517300e-01	-1.254864e+00	2.106594e+00
32.3496       	1.953640e-06	8.517345e-01	-1.254865e+00	2.106600e+00
32.3553       	1.953640e-06	8.517390e-01	-1.254867e+00	2.106606e+00
32.361        	1.953640e-06	8.517435e-01	-1.254868e+00	2.106611e+00
32.3666       	1.953640e-06	8.517480e-01	-1.254869e+00	2.106617e+00
32.3723       	1.953640e-06	8.517525e-01	-1.254871e+00	2.106623e+00
32.378        	1.953640e-06	8.517570e-01	-1.254872e+00	2.106629e+00
32.3837       	1.953640e-06	8.517615e-01	-1.254873e+00	2.106635e+00
32.3893       	1.953640e-06	8.517660e-01	-1.254874e+00	2.106641e+00
32.395        	1.953640e-06	8.517705e-01	-1.254876e+00	2.106646e+00
32.4007       	1.953640e-06	8.517750e-01	-1.254877e+00	2.106652e+00
32.4064       	1.953640e-06	8.517795e-01	-1.254878e+00	2.106658e+00
32.412        	1.953640e-06	8.517841e-01	-1.254880e+00	2.106664e+00
32.4177       	1.953640e-06	8.517886e-01	-1.254881e+00	2.106670e+00
32.4234       	1.953640e-06	8.517931e-01	-1.254882e+00	2.106675e+00
32.4291       	1.953640e-06	8.517976e-01	-1.254884e+00	2.106681e+00
32.4347       	1.953640e-06	8.518021e-01	-1.254885e+00	2.106687e+00
32.4404       	1.953640e-06	8.518066e-01	-1.254886e+00	2.106693e+00
32.4461       	1.953640e-06	8.518111e-01	-1.254888e+00	2.106699e+00
32.4518       	1.953640e-06	8.518156e-01	-1.254889e+00	2.106704e+00
32.4574       	1.953640e-06	8.518201e-01	-1.254890e+00	2.106710e+00
32.4631       	1.953640e-06	8.518246e-01	-1.254891e+00	2.106716e+00
32.4688       	1.953640e-06	8.518291e-01	-1.254893e+00	2.106722e+00
32.4745       	1.953640e-06	8.518336e-01	-1.254894e+00	2.106728e+00
32.4801       	1.953640e-06	8.518381e-01	-1.254895e+00	2.106733e+00