# Region type : surface veryTop
# Faces       : 92
# Area        : 1.953640e-06
# Scale factor: 1.000000e+00
# Time        	Area	areaAverage(nusseltOneMean)	areaAverage(nusseltTwoMean)	areaAverage(nusseltTotalMean)
30            	1.953640e-06	2.364223e-01	-1.923312e+00	2.159735e+00
30.0057       	1.953640e-06	2.364223e-01	-1.923310e+00	2.159732e+00
30.0114       	1.953640e-06	2.364223e-01	-1.923307e+00	2.159729e+00
30.017        	1.953640e-06	2.364223e-01	-1.923304e+00	2.159727e+00
30.0227       	1.953640e-06	2.364223e-01	-1.923302e+00	2.159724e+00
30.0284       	1.953640e-06	2.364223e-01	-1.923299e+00	2.159721e+00
30.0341       	1.953640e-06	2.364223e-01	-1.923296e+00	2.159719e+00
30.0397       	1.953640e-06	2.364223e-01	-1.923294e+00	2.159716e+00
30.0454       	1.953640e-06	2.364223e-01	-1.923291e+00	2.159714e+00
30.0511       	1.953640e-06	2.364223e-01	-1.923289e+00	2.159711e+00
30.0568       	1.953640e-06	2.364224e-01	-1.923286e+00	2.159709e+00
30.0624       	1.953640e-06	2.364224e-01	-1.923284e+00	2.159706e+00
30.0681       	1.953640e-06	2.364224e-01	-1.923281e+00	2.159704e+00
30.0738       	1.953640e-06	2.364225e-01	-1.923279e+00	2.159701e+00
30.0795       	1.953640e-06	2.364225e-01	-1.923276e+00	2.159699e+00
30.0851       	1.953640e-06	2.364226e-01	-1.923274e+00	2.159696e+00
30.0908       	1.953640e-06	2.364226e-01	-1.923271e+00	2.159694e+00
30.0965       	1.953640e-06	2.364227e-01	-1.923269e+00	2.159691e+00
30.1022       	1.953640e-06	2.364228e-01	-1.923266e+00	2.159689e+00
30.1078       	1.953640e-06	2.364228e-01	-1.923264e+00	2.159686e+00
30.1135       	1.953640e-06	2.364229e-01	-1.923261e+00	2.159684e+00
30.1192       	1.953640e-06	2.364230e-01	-1.923259e+00	2.159682e+00
30.1249       	1.953640e-06	2.364231e-01	-1.923256e+00	2.159679e+00
30.1305       	1.953640e-06	2.364232e-01	-1.923254e+00	2.159677e+00
30.1362       	1.953640e-06	2.364233e-01	-1.923251e+00	2.159675e+00
30.1419       	1.953640e-06	2.364234e-01	-1.923249e+00	2.159672e+00
30.1476       	1.953640e-06	2.364235e-01	-1.923246e+00	2.159670e+00
30.1532       	1.953640e-06	2.364236e-01	-1.923244e+00	2.159668e+00
30.1589       	1.953640e-06	2.364237e-01	-1.923242e+00	2.159665e+00
30.1646       	1.953640e-06	2.364238e-01	-1.923239e+00	2.159663e+00
30.1703       	1.953640e-06	2.364240e-01	-1.923237e+00	2.159661e+00
30.1759       	1.953640e-06	2.364241e-01	-1.923234e+00	2.159659e+00
30.1816       	1.953640e-06	2.364242e-01	-1.923232e+00	2.159656e+00
30.1873       	1.953640e-06	2.364244e-01	-1.923230e+00	2.159654e+00
30.193        	1.953640e-06	2.364245e-01	-1.923227e+00	2.159652e+00
30.1986       	1.953640e-06	2.364247e-01	-1.923225e+00	2.159650e+00
30.2043       	1.953640e-06	2.364248e-01	-1.923223e+00	2.159648e+00
30.21         	1.953640e-06	2.364250e-01	-1.923220e+00	2.159645e+00
30.2157       	1.953640e-06	2.364252e-01	-1.923218e+00	2.159643e+00
30.2213       	1.953640e-06	2.364254e-01	-1.923216e+00	2.159641e+00
30.227        	1.953640e-06	2.364255e-01	-1.923214e+00	2.159639e+00
30.2327       	1.953640e-06	2.364257e-01	-1.923211e+00	2.159637e+00
30.2384       	1.953640e-06	2.364259e-01	-1.923209e+00	2.159635e+00
30.244        	1.953640e-06	2.364261e-01	-1.923207e+00	2.159633e+00
30.2497       	1.953640e-06	2.364263e-01	-1.923204e+00	2.159631e+00
30.2554       	1.953640e-06	2.364265e-01	-1.923202e+00	2.159629e+00
30.2611       	1.953640e-06	2.364267e-01	-1.923200e+00	2.159627e+00
30.2667       	1.953640e-06	2.364269e-01	-1.923198e+00	2.159625e+00
30.2724       	1.953640e-06	2.364271e-01	-1.923196e+00	2.159623e+00
30.2781       	1.953640e-06	2.364273e-01	-1.923193e+00	2.159621e+00
30.2838       	1.953640e-06	2.364276e-01	-1.923191e+00	2.159619e+00
30.2894       	1.953640e-06	2.364278e-01	-1.923189e+00	2.159617e+00
30.2951       	1.953640e-06	2.364280e-01	-1.923187e+00	2.159615e+00
30.3008       	1.953640e-06	2.364283e-01	-1.923185e+00	2.159613e+00
30.3065       	1.953640e-06	2.364285e-01	-1.923182e+00	2.159611e+00
30.3121       	1.953640e-06	2.364288e-01	-1.923180e+00	2.159609e+00
30.3178       	1.953640e-06	2.364290e-01	-1.923178e+00	2.159607e+00
30.3235       	1.953640e-06	2.364293e-01	-1.923176e+00	2.159605e+00
30.3292       	1.953640e-06	2.364295e-01	-1.923174e+00	2.159603e+00
30.3348       	1.953640e-06	2.364298e-01	-1.923172e+00	2.159602e+00
30.3405       	1.953640e-06	2.364301e-01	-1.923170e+00	2.159600e+00
30.3462       	1.953640e-06	2.364304e-01	-1.923168e+00	2.159598e+00
30.3519       	1.953640e-06	2.364306e-01	-1.923166e+00	2.159596e+00
30.3575       	1.953640e-06	2.364309e-01	-1.923163e+00	2.159594e+00
30.3632       	1.953640e-06	2.364312e-01	-1.923161e+00	2.159593e+00
30.3689       	1.953640e-06	2.364315e-01	-1.923159e+00	2.159591e+00
30.3746       	1.953640e-06	2.364318e-01	-1.923157e+00	2.159589e+00
30.3802       	1.953640e-06	2.364321e-01	-1.923155e+00	2.159587e+00
30.3859       	1.953640e-06	2.364324e-01	-1.923153e+00	2.159586e+00
30.3916       	1.953640e-06	2.364327e-01	-1.923151e+00	2.159584e+00
30.3973       	1.953640e-06	2.364331e-01	-1.923149e+00	2.159582e+00
30.403        	1.953640e-06	2.364334e-01	-1.923147e+00	2.159581e+00
30.4086       	1.953640e-06	2.364337e-01	-1.923145e+00	2.159579e+00
30.4143       	1.953640e-06	2.364341e-01	-1.923143e+00	2.159577e+00
30.42         	1.953640e-06	2.364344e-01	-1.923141e+00	2.159576e+00
30.4257       	1.953640e-06	2.364347e-01	-1.923139e+00	2.159574e+00
30.4313       	1.953640e-06	2.364351e-01	-1.923137e+00	2.159572e+00
30.437        	1.953640e-06	2.364354e-01	-1.923135e+00	2.159571e+00
30.4427       	1.953640e-06	2.364358e-01	-1.923134e+00	2.159569e+00
30.4484       	1.953640e-06	2.364361e-01	-1.923132e+00	2.159568e+00
30.454        	1.953640e-06	2.364365e-01	-1.923130e+00	2.159566e+00
30.4597       	1.953640e-06	2.364369e-01	-1.923128e+00	2.159565e+00
30.4654       	1.953640e-06	2.364372e-01	-1.923126e+00	2.159563e+00
30.4711       	1.953640e-06	2.364376e-01	-1.923124e+00	2.159562e+00
30.4767       	1.953640e-06	2.364380e-01	-1.923122e+00	2.159560e+00
30.4824       	1.953640e-06	2.364384e-01	-1.923120e+00	2.159559e+00
30.4881       	1.953640e-06	2.364388e-01	-1.923118e+00	2.159557e+00
30.4938       	1.953640e-06	2.364392e-01	-1.923117e+00	2.159556e+00
30.4994       	1.953640e-06	2.364396e-01	-1.923115e+00	2.159554e+00
30.5051       	1.953640e-06	2.364400e-01	-1.923113e+00	2.159553e+00
30.5108       	1.953640e-06	2.364404e-01	-1.923111e+00	2.159552e+00
30.5165       	1.953640e-06	2.364408e-01	-1.923109e+00	2.159550e+00
30.5221       	1.953640e-06	2.364412e-01	-1.923108e+00	2.159549e+00
30.5278       	1.953640e-06	2.364416e-01	-1.923106e+00	2.159547e+00
30.5335       	1.953640e-06	2.364420e-01	-1.923104e+00	2.159546e+00
30.5392       	1.953640e-06	2.364425e-01	-1.923102e+00	2.159545e+00
30.5448       	1.953640e-06	2.364429e-01	-1.923101e+00	2.159543e+00
30.5505       	1.953640e-06	2.364433e-01	-1.923099e+00	2.159542e+00
30.5562       	1.953640e-06	2.364438e-01	-1.923097e+00	2.159541e+00
30.5619       	1.953640e-06	2.364442e-01	-1.923095e+00	2.159540e+00
30.5675       	1.953640e-06	2.364447e-01	-1.923094e+00	2.159538e+00
30.5732       	1.953640e-06	2.364451e-01	-1.923092e+00	2.159537e+00
30.5789       	1.953640e-06	2.364456e-01	-1.923090e+00	2.159536e+00
30.5846       	1.953640e-06	2.364460e-01	-1.923089e+00	2.159535e+00
30.5902       	1.953640e-06	2.364465e-01	-1.923087e+00	2.159533e+00
30.5959       	1.953640e-06	2.364470e-01	-1.923085e+00	2.159532e+00
30.6016       	1.953640e-06	2.364475e-01	-1.923084e+00	2.159531e+00
30.6073       	1.953640e-06	2.364479e-01	-1.923082e+00	2.159530e+00
30.6129       	1.953640e-06	2.364484e-01	-1.923080e+00	2.159529e+00
30.6186       	1.953640e-06	2.364489e-01	-1.923079e+00	2.159528e+00
30.6243       	1.953640e-06	2.364494e-01	-1.923077e+00	2.159527e+00
30.63         	1.953640e-06	2.364499e-01	-1.923076e+00	2.159525e+00
30.6356       	1.953640e-06	2.364504e-01	-1.923074e+00	2.159524e+00
30.6413       	1.953640e-06	2.364509e-01	-1.923072e+00	2.159523e+00
30.647        	1.953640e-06	2.364514e-01	-1.923071e+00	2.159522e+00
30.6527       	1.953640e-06	2.364519e-01	-1.923069e+00	2.159521e+00
30.6583       	1.953640e-06	2.364524e-01	-1.923068e+00	2.159520e+00
30.664        	1.953640e-06	2.364529e-01	-1.923066e+00	2.159519e+00
30.6697       	1.953640e-06	2.364535e-01	-1.923065e+00	2.159518e+00
30.6754       	1.953640e-06	2.364540e-01	-1.923063e+00	2.159517e+00
30.681        	1.953640e-06	2.364545e-01	-1.923062e+00	2.159516e+00
30.6867       	1.953640e-06	2.364551e-01	-1.923060e+00	2.159515e+00
30.6924       	1.953640e-06	2.364556e-01	-1.923059e+00	2.159514e+00
30.6981       	1.953640e-06	2.364561e-01	-1.923057e+00	2.159513e+00
30.7037       	1.953640e-06	2.364567e-01	-1.923056e+00	2.159512e+00
30.7094       	1.953640e-06	2.364572e-01	-1.923054e+00	2.159512e+00
30.7151       	1.953640e-06	2.364578e-01	-1.923053e+00	2.159511e+00
30.7208       	1.953640e-06	2.364583e-01	-1.923051e+00	2.159510e+00
30.7264       	1.953640e-06	2.364589e-01	-1.923050e+00	2.159509e+00
30.7321       	1.953640e-06	2.364595e-01	-1.923049e+00	2.159508e+00
30.7378       	1.953640e-06	2.364600e-01	-1.923047e+00	2.159507e+00
30.7435       	1.953640e-06	2.364606e-01	-1.923046e+00	2.159506e+00
30.7491       	1.953640e-06	2.364612e-01	-1.923044e+00	2.159506e+00
30.7548       	1.953640e-06	2.364618e-01	-1.923043e+00	2.159505e+00
30.7605       	1.953640e-06	2.364623e-01	-1.923042e+00	2.159504e+00
30.7662       	1.953640e-06	2.364629e-01	-1.923040e+00	2.159503e+00
30.7719       	1.953640e-06	2.364635e-01	-1.923039e+00	2.159503e+00
30.7775       	1.953640e-06	2.364641e-01	-1.923038e+00	2.159502e+00
30.7832       	1.953640e-06	2.364647e-01	-1.923036e+00	2.159501e+00
30.7889       	1.953640e-06	2.364653e-01	-1.923035e+00	2.159500e+00
30.7946       	1.953640e-06	2.364659e-01	-1.923034e+00	2.159500e+00
30.8002       	1.953640e-06	2.364665e-01	-1.923032e+00	2.159499e+00
30.8059       	1.953640e-06	2.364672e-01	-1.923031e+00	2.159498e+00
30.8116       	1.953640e-06	2.364678e-01	-1.923030e+00	2.159498e+00
30.8173       	1.953640e-06	2.364684e-01	-1.923029e+00	2.159497e+00
30.8229       	1.953640e-06	2.364690e-01	-1.923027e+00	2.159496e+00
30.8286       	1.953640e-06	2.364696e-01	-1.923026e+00	2.159496e+00
30.8343       	1.953640e-06	2.364703e-01	-1.923025e+00	2.159495e+00
30.84         	1.953640e-06	2.364709e-01	-1.923024e+00	2.159495e+00
30.8456       	1.953640e-06	2.364715e-01	-1.923022e+00	2.159494e+00
30.8513       	1.953640e-06	2.364722e-01	-1.923021e+00	2.159493e+00
30.857        	1.953640e-06	2.364728e-01	-1.923020e+00	2.159493e+00
30.8627       	1.953640e-06	2.364735e-01	-1.923019e+00	2.159492e+00
30.8683       	1.953640e-06	2.364741e-01	-1.923018e+00	2.159492e+00
30.874        	1.953640e-06	2.364748e-01	-1.923017e+00	2.159491e+00
30.8797       	1.953640e-06	2.364755e-01	-1.923015e+00	2.159491e+00
30.8854       	1.953640e-06	2.364761e-01	-1.923014e+00	2.159490e+00
30.891        	1.953640e-06	2.364768e-01	-1.923013e+00	2.159490e+00
30.8967       	1.953640e-06	2.364775e-01	-1.923012e+00	2.159490e+00
30.9024       	1.953640e-06	2.364781e-01	-1.923011e+00	2.159489e+00
30.9081       	1.953640e-06	2.364788e-01	-1.923010e+00	2.159489e+00
30.9137       	1.953640e-06	2.364795e-01	-1.923009e+00	2.159488e+00
30.9194       	1.953640e-06	2.364802e-01	-1.923008e+00	2.159488e+00
30.9251       	1.953640e-06	2.364809e-01	-1.923007e+00	2.159487e+00
30.9308       	1.953640e-06	2.364816e-01	-1.923006e+00	2.159487e+00
30.9364       	1.953640e-06	2.364822e-01	-1.923005e+00	2.159487e+00
30.9421       	1.953640e-06	2.364829e-01	-1.923003e+00	2.159486e+00
30.9478       	1.953640e-06	2.364836e-01	-1.923002e+00	2.159486e+00
30.9535       	1.953640e-06	2.364844e-01	-1.923001e+00	2.159486e+00
30.9591       	1.953640e-06	2.364851e-01	-1.923000e+00	2.159486e+00
30.9648       	1.953640e-06	2.364858e-01	-1.922999e+00	2.159485e+00
30.9705       	1.953640e-06	2.364865e-01	-1.922998e+00	2.159485e+00
30.9762       	1.953640e-06	2.364872e-01	-1.922998e+00	2.159485e+00
30.9818       	1.953640e-06	2.364879e-01	-1.922997e+00	2.159484e+00
30.9875       	1.953640e-06	2.364886e-01	-1.922996e+00	2.159484e+00
30.9932       	1.953640e-06	2.364894e-01	-1.922995e+00	2.159484e+00
30.9989       	1.953640e-06	2.364901e-01	-1.922994e+00	2.159484e+00
31.0045       	1.953640e-06	2.364908e-01	-1.922993e+00	2.159484e+00
31.0102       	1.953640e-06	2.364916e-01	-1.922992e+00	2.159483e+00
31.0159       	1.953640e-06	2.364923e-01	-1.922991e+00	2.159483e+00
31.0216       	1.953640e-06	2.364931e-01	-1.922990e+00	2.159483e+00
31.0272       	1.953640e-06	2.364938e-01	-1.922989e+00	2.159483e+00
31.0329       	1.953640e-06	2.364946e-01	-1.922988e+00	2.159483e+00
31.0386       	1.953640e-06	2.364953e-01	-1.922987e+00	2.159483e+00
31.0443       	1.953640e-06	2.364961e-01	-1.922987e+00	2.159483e+00
31.0499       	1.953640e-06	2.364968e-01	-1.922986e+00	2.159483e+00
31.0556       	1.953640e-06	2.364976e-01	-1.922985e+00	2.159483e+00
31.0613       	1.953640e-06	2.364984e-01	-1.922984e+00	2.159482e+00
31.067        	1.953640e-06	2.364991e-01	-1.922983e+00	2.159482e+00
31.0726       	1.953640e-06	2.364999e-01	-1.922983e+00	2.159482e+00
31.0783       	1.953640e-06	2.365007e-01	-1.922982e+00	2.159482e+00
31.084        	1.953640e-06	2.365014e-01	-1.922981e+00	2.159482e+00
31.0897       	1.953640e-06	2.365022e-01	-1.922980e+00	2.159482e+00
31.0953       	1.953640e-06	2.365030e-01	-1.922979e+00	2.159482e+00
31.101        	1.953640e-06	2.365038e-01	-1.922979e+00	2.159482e+00
31.1067       	1.953640e-06	2.365046e-01	-1.922978e+00	2.159483e+00
31.1124       	1.953640e-06	2.365054e-01	-1.922977e+00	2.159483e+00
31.118        	1.953640e-06	2.365062e-01	-1.922976e+00	2.159483e+00
31.1237       	1.953640e-06	2.365070e-01	-1.922976e+00	2.159483e+00
31.1294       	1.953640e-06	2.365078e-01	-1.922975e+00	2.159483e+00
31.1351       	1.953640e-06	2.365086e-01	-1.922974e+00	2.159483e+00
31.1407       	1.953640e-06	2.365094e-01	-1.922974e+00	2.159483e+00
31.1464       	1.953640e-06	2.365102e-01	-1.922973e+00	2.159483e+00
31.1521       	1.953640e-06	2.365110e-01	-1.922972e+00	2.159483e+00
31.1578       	1.953640e-06	2.365118e-01	-1.922972e+00	2.159484e+00
31.1635       	1.953640e-06	2.365126e-01	-1.922971e+00	2.159484e+00
31.1691       	1.953640e-06	2.365135e-01	-1.922970e+00	2.159484e+00
31.1748       	1.953640e-06	2.365143e-01	-1.922970e+00	2.159484e+00
31.1805       	1.953640e-06	2.365151e-01	-1.922969e+00	2.159484e+00
31.1862       	1.953640e-06	2.365160e-01	-1.922969e+00	2.159485e+00
31.1918       	1.953640e-06	2.365168e-01	-1.922968e+00	2.159485e+00
31.1975       	1.953640e-06	2.365176e-01	-1.922967e+00	2.159485e+00
31.2032       	1.953640e-06	2.365185e-01	-1.922967e+00	2.159485e+00
31.2089       	1.953640e-06	2.365193e-01	-1.922966e+00	2.159486e+00
31.2145       	1.953640e-06	2.365201e-01	-1.922966e+00	2.159486e+00
31.2202       	1.953640e-06	2.365210e-01	-1.922965e+00	2.159486e+00
31.2259       	1.953640e-06	2.365218e-01	-1.922965e+00	2.159487e+00
31.2316       	1.953640e-06	2.365227e-01	-1.922964e+00	2.159487e+00
31.2372       	1.953640e-06	2.365236e-01	-1.922964e+00	2.159487e+00
31.2429       	1.953640e-06	2.365244e-01	-1.922963e+00	2.159488e+00
31.2486       	1.953640e-06	2.365253e-01	-1.922963e+00	2.159488e+00
31.2543       	1.953640e-06	2.365261e-01	-1.922962e+00	2.159488e+00
31.2599       	1.953640e-06	2.365270e-01	-1.922962e+00	2.159489e+00
31.2656       	1.953640e-06	2.365279e-01	-1.922961e+00	2.159489e+00
31.2713       	1.953640e-06	2.365287e-01	-1.922961e+00	2.159490e+00
31.277        	1.953640e-06	2.365296e-01	-1.922960e+00	2.159490e+00
31.2826       	1.953640e-06	2.365305e-01	-1.922960e+00	2.159490e+00
31.2883       	1.953640e-06	2.365314e-01	-1.922960e+00	2.159491e+00
31.294        	1.953640e-06	2.365323e-01	-1.922959e+00	2.159491e+00
31.2997       	1.953640e-06	2.365331e-01	-1.922959e+00	2.159492e+00
31.3053       	1.953640e-06	2.365340e-01	-1.922958e+00	2.159492e+00
31.311        	1.953640e-06	2.365349e-01	-1.922958e+00	2.159493e+00
31.3167       	1.953640e-06	2.365358e-01	-1.922958e+00	2.159493e+00
31.3224       	1.953640e-06	2.365367e-01	-1.922957e+00	2.159494e+00
31.328        	1.953640e-06	2.365376e-01	-1.922957e+00	2.159494e+00
31.3337       	1.953640e-06	2.365385e-01	-1.922957e+00	2.159495e+00
31.3394       	1.953640e-06	2.365394e-01	-1.922956e+00	2.159496e+00
31.3451       	1.953640e-06	2.365403e-01	-1.922956e+00	2.159496e+00
31.3507       	1.953640e-06	2.365412e-01	-1.922956e+00	2.159497e+00
31.3564       	1.953640e-06	2.365421e-01	-1.922955e+00	2.159497e+00
31.3621       	1.953640e-06	2.365430e-01	-1.922955e+00	2.159498e+00
31.3678       	1.953640e-06	2.365439e-01	-1.922955e+00	2.159499e+00
31.3734       	1.953640e-06	2.365449e-01	-1.922954e+00	2.159499e+00
31.3791       	1.953640e-06	2.365458e-01	-1.922954e+00	2.159500e+00
31.3848       	1.953640e-06	2.365467e-01	-1.922954e+00	2.159501e+00
31.3905       	1.953640e-06	2.365476e-01	-1.922954e+00	2.159501e+00
31.3961       	1.953640e-06	2.365486e-01	-1.922953e+00	2.159502e+00
31.4018       	1.953640e-06	2.365495e-01	-1.922953e+00	2.159503e+00
31.4075       	1.953640e-06	2.365504e-01	-1.922953e+00	2.159503e+00
31.4132       	1.953640e-06	2.365513e-01	-1.922953e+00	2.159504e+00
31.4188       	1.953640e-06	2.365523e-01	-1.922953e+00	2.159505e+00
31.4245       	1.953640e-06	2.365532e-01	-1.922952e+00	2.159506e+00
31.4302       	1.953640e-06	2.365542e-01	-1.922952e+00	2.159506e+00
31.4359       	1.953640e-06	2.365551e-01	-1.922952e+00	2.159507e+00
31.4415       	1.953640e-06	2.365560e-01	-1.922952e+00	2.159508e+00
31.4472       	1.953640e-06	2.365570e-01	-1.922952e+00	2.159509e+00
31.4529       	1.953640e-06	2.365579e-01	-1.922952e+00	2.159510e+00
31.4586       	1.953640e-06	2.365589e-01	-1.922951e+00	2.159510e+00
31.4642       	1.953640e-06	2.365598e-01	-1.922951e+00	2.159511e+00
31.4699       	1.953640e-06	2.365608e-01	-1.922951e+00	2.159512e+00
31.4756       	1.953640e-06	2.365618e-01	-1.922951e+00	2.159513e+00
31.4813       	1.953640e-06	2.365627e-01	-1.922951e+00	2.159514e+00
31.4869       	1.953640e-06	2.365637e-01	-1.922951e+00	2.159515e+00
31.4926       	1.953640e-06	2.365646e-01	-1.922951e+00	2.159516e+00
31.4983       	1.953640e-06	2.365656e-01	-1.922951e+00	2.159516e+00
31.504        	1.953640e-06	2.365666e-01	-1.922951e+00	2.159517e+00
31.5096       	1.953640e-06	2.365675e-01	-1.922951e+00	2.159518e+00
31.5153       	1.953640e-06	2.365685e-01	-1.922951e+00	2.159519e+00
31.521        	1.953640e-06	2.365695e-01	-1.922951e+00	2.159520e+00
31.5267       	1.953640e-06	2.365705e-01	-1.922951e+00	2.159521e+00
31.5323       	1.953640e-06	2.365715e-01	-1.922951e+00	2.159522e+00
31.538        	1.953640e-06	2.365724e-01	-1.922951e+00	2.159523e+00
31.5437       	1.953640e-06	2.365734e-01	-1.922951e+00	2.159524e+00
31.5494       	1.953640e-06	2.365744e-01	-1.922951e+00	2.159525e+00
31.5551       	1.953640e-06	2.365754e-01	-1.922951e+00	2.159526e+00
31.5607       	1.953640e-06	2.365764e-01	-1.922951e+00	2.159527e+00
31.5664       	1.953640e-06	2.365774e-01	-1.922951e+00	2.159528e+00
31.5721       	1.953640e-06	2.365784e-01	-1.922951e+00	2.159529e+00
31.5778       	1.953640e-06	2.365794e-01	-1.922951e+00	2.159530e+00
31.5834       	1.953640e-06	2.365804e-01	-1.922951e+00	2.159531e+00
31.5891       	1.953640e-06	2.365814e-01	-1.922951e+00	2.159532e+00
31.5948       	1.953640e-06	2.365824e-01	-1.922951e+00	2.159534e+00
31.6005       	1.953640e-06	2.365834e-01	-1.922951e+00	2.159535e+00
31.6061       	1.953640e-06	2.365844e-01	-1.922951e+00	2.159536e+00
31.6118       	1.953640e-06	2.365854e-01	-1.922951e+00	2.159537e+00
31.6175       	1.953640e-06	2.365864e-01	-1.922952e+00	2.159538e+00
31.6232       	1.953640e-06	2.365874e-01	-1.922952e+00	2.159539e+00
31.6288       	1.953640e-06	2.365884e-01	-1.922952e+00	2.159540e+00
31.6345       	1.953640e-06	2.365894e-01	-1.922952e+00	2.159541e+00
31.6402       	1.953640e-06	2.365904e-01	-1.922952e+00	2.159543e+00
31.6459       	1.953640e-06	2.365914e-01	-1.922952e+00	2.159544e+00
31.6515       	1.953640e-06	2.365925e-01	-1.922953e+00	2.159545e+00
31.6572       	1.953640e-06	2.365935e-01	-1.922953e+00	2.159546e+00
31.6629       	1.953640e-06	2.365945e-01	-1.922953e+00	2.159548e+00
31.6686       	1.953640e-06	2.365955e-01	-1.922953e+00	2.159549e+00
31.6742       	1.953640e-06	2.365966e-01	-1.922953e+00	2.159550e+00
31.6799       	1.953640e-06	2.365976e-01	-1.922954e+00	2.159551e+00
31.6856       	1.953640e-06	2.365986e-01	-1.922954e+00	2.159553e+00
31.6913       	1.953640e-06	2.365997e-01	-1.922954e+00	2.159554e+00
31.6969       	1.953640e-06	2.366007e-01	-1.922954e+00	2.159555e+00
31.7026       	1.953640e-06	2.366017e-01	-1.922955e+00	2.159556e+00
31.7083       	1.953640e-06	2.366028e-01	-1.922955e+00	2.159558e+00
31.714        	1.953640e-06	2.366038e-01	-1.922955e+00	2.159559e+00
31.7196       	1.953640e-06	2.366048e-01	-1.922956e+00	2.159560e+00
31.7253       	1.953640e-06	2.366059e-01	-1.922956e+00	2.159562e+00
31.731        	1.953640e-06	2.366069e-01	-1.922956e+00	2.159563e+00
31.7367       	1.953640e-06	2.366080e-01	-1.922957e+00	2.159564e+00
31.7423       	1.953640e-06	2.366090e-01	-1.922957e+00	2.159566e+00
31.748        	1.953640e-06	2.366101e-01	-1.922957e+00	2.159567e+00
31.7537       	1.953640e-06	2.366111e-01	-1.922958e+00	2.159569e+00
31.7594       	1.953640e-06	2.366122e-01	-1.922958e+00	2.159570e+00
31.765        	1.953640e-06	2.366132e-01	-1.922958e+00	2.159571e+00
31.7707       	1.953640e-06	2.366143e-01	-1.922959e+00	2.159573e+00
31.7764       	1.953640e-06	2.366153e-01	-1.922959e+00	2.159574e+00
31.7821       	1.953640e-06	2.366164e-01	-1.922959e+00	2.159576e+00
31.7877       	1.953640e-06	2.366175e-01	-1.922960e+00	2.159577e+00
31.7934       	1.953640e-06	2.366185e-01	-1.922960e+00	2.159579e+00
31.7991       	1.953640e-06	2.366196e-01	-1.922961e+00	2.159580e+00
31.8048       	1.953640e-06	2.366206e-01	-1.922961e+00	2.159582e+00
31.8104       	1.953640e-06	2.366217e-01	-1.922961e+00	2.159583e+00
31.8161       	1.953640e-06	2.366228e-01	-1.922962e+00	2.159585e+00
31.8218       	1.953640e-06	2.366238e-01	-1.922962e+00	2.159586e+00
31.8275       	1.953640e-06	2.366249e-01	-1.922963e+00	2.159588e+00
31.8331       	1.953640e-06	2.366260e-01	-1.922963e+00	2.159589e+00
31.8388       	1.953640e-06	2.366271e-01	-1.922964e+00	2.159591e+00
31.8445       	1.953640e-06	2.366281e-01	-1.922964e+00	2.159592e+00
31.8502       	1.953640e-06	2.366292e-01	-1.922965e+00	2.159594e+00
31.8558       	1.953640e-06	2.366303e-01	-1.922965e+00	2.159596e+00
31.8615       	1.953640e-06	2.366314e-01	-1.922966e+00	2.159597e+00
31.8672       	1.953640e-06	2.366324e-01	-1.922966e+00	2.159599e+00
31.8729       	1.953640e-06	2.366335e-01	-1.922967e+00	2.159600e+00
31.8785       	1.953640e-06	2.366346e-01	-1.922967e+00	2.159602e+00
31.8842       	1.953640e-06	2.366357e-01	-1.922968e+00	2.159604e+00
31.8899       	1.953640e-06	2.366368e-01	-1.922968e+00	2.159605e+00
31.8956       	1.953640e-06	2.366379e-01	-1.922969e+00	2.159607e+00
31.9012       	1.953640e-06	2.366389e-01	-1.922970e+00	2.159609e+00
31.9069       	1.953640e-06	2.366400e-01	-1.922970e+00	2.159610e+00
31.9126       	1.953640e-06	2.366411e-01	-1.922971e+00	2.159612e+00
31.9183       	1.953640e-06	2.366422e-01	-1.922971e+00	2.159614e+00
31.924        	1.953640e-06	2.366433e-01	-1.922972e+00	2.159615e+00
31.9296       	1.953640e-06	2.366444e-01	-1.922973e+00	2.159617e+00
31.9353       	1.953640e-06	2.366455e-01	-1.922973e+00	2.159619e+00
31.941        	1.953640e-06	2.366466e-01	-1.922974e+00	2.159620e+00
31.9467       	1.953640e-06	2.366477e-01	-1.922974e+00	2.159622e+00
31.9523       	1.953640e-06	2.366488e-01	-1.922975e+00	2.159624e+00
31.958        	1.953640e-06	2.366499e-01	-1.922976e+00	2.159626e+00
31.9637       	1.953640e-06	2.366510e-01	-1.922976e+00	2.159627e+00
31.9694       	1.953640e-06	2.366521e-01	-1.922977e+00	2.159629e+00
31.975        	1.953640e-06	2.366532e-01	-1.922978e+00	2.159631e+00
31.9807       	1.953640e-06	2.366543e-01	-1.922978e+00	2.159633e+00
31.9864       	1.953640e-06	2.366554e-01	-1.922979e+00	2.159635e+00
31.9921       	1.953640e-06	2.366565e-01	-1.922980e+00	2.159636e+00
31.9977       	1.953640e-06	2.366576e-01	-1.922981e+00	2.159638e+00
32.0034       	1.953640e-06	2.366587e-01	-1.922981e+00	2.159640e+00
32.0091       	1.953640e-06	2.366599e-01	-1.922982e+00	2.159642e+00
32.0148       	1.953640e-06	2.366610e-01	-1.922983e+00	2.159644e+00
32.0204       	1.953640e-06	2.366621e-01	-1.922984e+00	2.159646e+00
32.0261       	1.953640e-06	2.366632e-01	-1.922984e+00	2.159647e+00
32.0318       	1.953640e-06	2.366643e-01	-1.922985e+00	2.159649e+00
32.0375       	1.953640e-06	2.366654e-01	-1.922986e+00	2.159651e+00
32.0431       	1.953640e-06	2.366665e-01	-1.922987e+00	2.159653e+00
32.0488       	1.953640e-06	2.366677e-01	-1.922987e+00	2.159655e+00
32.0545       	1.953640e-06	2.366688e-01	-1.922988e+00	2.159657e+00
32.0602       	1.953640e-06	2.366699e-01	-1.922989e+00	2.159659e+00
32.0658       	1.953640e-06	2.366710e-01	-1.922990e+00	2.159661e+00
32.0715       	1.953640e-06	2.366721e-01	-1.922991e+00	2.159663e+00
32.0772       	1.953640e-06	2.366733e-01	-1.922991e+00	2.159665e+00
32.0829       	1.953640e-06	2.366744e-01	-1.922992e+00	2.159667e+00
32.0885       	1.953640e-06	2.366755e-01	-1.922993e+00	2.159669e+00
32.0942       	1.953640e-06	2.366766e-01	-1.922994e+00	2.159671e+00
32.0999       	1.953640e-06	2.366778e-01	-1.922995e+00	2.159673e+00
32.1056       	1.953640e-06	2.366789e-01	-1.922996e+00	2.159675e+00
32.1112       	1.953640e-06	2.366800e-01	-1.922997e+00	2.159677e+00
32.1169       	1.953640e-06	2.366812e-01	-1.922997e+00	2.159679e+00
32.1226       	1.953640e-06	2.366823e-01	-1.922998e+00	2.159681e+00
32.1283       	1.953640e-06	2.366834e-01	-1.922999e+00	2.159683e+00
32.1339       	1.953640e-06	2.366846e-01	-1.923000e+00	2.159685e+00
32.1396       	1.953640e-06	2.366857e-01	-1.923001e+00	2.159687e+00
32.1453       	1.953640e-06	2.366868e-01	-1.923002e+00	2.159689e+00
32.151        	1.953640e-06	2.366880e-01	-1.923003e+00	2.159691e+00
32.1566       	1.953640e-06	2.366891e-01	-1.923004e+00	2.159693e+00
32.1623       	1.953640e-06	2.366902e-01	-1.923005e+00	2.159695e+00
32.168        	1.953640e-06	2.366914e-01	-1.923006e+00	2.159697e+00
32.1737       	1.953640e-06	2.366925e-01	-1.923007e+00	2.159699e+00
32.1793       	1.953640e-06	2.366936e-01	-1.923008e+00	2.159701e+00
32.185        	1.953640e-06	2.366948e-01	-1.923008e+00	2.159703e+00
32.1907       	1.953640e-06	2.366959e-01	-1.923009e+00	2.159705e+00
32.1964       	1.953640e-06	2.366971e-01	-1.923010e+00	2.159708e+00
32.202        	1.953640e-06	2.366982e-01	-1.923011e+00	2.159710e+00
32.2077       	1.953640e-06	2.366993e-01	-1.923012e+00	2.159712e+00
32.2134       	1.953640e-06	2.367005e-01	-1.923013e+00	2.159714e+00
32.2191       	1.953640e-06	2.367016e-01	-1.923014e+00	2.159716e+00
32.2247       	1.953640e-06	2.367028e-01	-1.923015e+00	2.159718e+00
32.2304       	1.953640e-06	2.367039e-01	-1.923017e+00	2.159720e+00
32.2361       	1.953640e-06	2.367051e-01	-1.923018e+00	2.159723e+00
32.2418       	1.953640e-06	2.367062e-01	-1.923019e+00	2.159725e+00
32.2474       	1.953640e-06	2.367074e-01	-1.923020e+00	2.159727e+00
32.2531       	1.953640e-06	2.367085e-01	-1.923021e+00	2.159729e+00
32.2588       	1.953640e-06	2.367097e-01	-1.923022e+00	2.159731e+00
32.2645       	1.953640e-06	2.367108e-01	-1.923023e+00	2.159734e+00
32.2701       	1.953640e-06	2.367120e-01	-1.923024e+00	2.159736e+00
32.2758       	1.953640e-06	2.367131e-01	-1.923025e+00	2.159738e+00
32.2815       	1.953640e-06	2.367143e-01	-1.923026e+00	2.159740e+00
32.2872       	1.953640e-06	2.367154e-01	-1.923027e+00	2.159743e+00
32.2928       	1.953640e-06	2.367166e-01	-1.923028e+00	2.159745e+00
32.2985       	1.953640e-06	2.367177e-01	-1.923029e+00	2.159747e+00
32.3042       	1.953640e-06	2.367189e-01	-1.923031e+00	2.159749e+00
32.3099       	1.953640e-06	2.367200e-01	-1.923032e+00	2.159752e+00
32.3156       	1.953640e-06	2.367212e-01	-1.923033e+00	2.159754e+00
32.3212       	1.953640e-06	2.367223e-01	-1.923034e+00	2.159756e+00
32.3269       	1.953640e-06	2.367235e-01	-1.923035e+00	2.159759e+00
32.3326       	1.953640e-06	2.367247e-01	-1.923036e+00	2.159761e+00
32.3383       	1.953640e-06	2.367258e-01	-1.923037e+00	2.159763e+00
32.3439       	1.953640e-06	2.367270e-01	-1.923039e+00	2.159766e+00
32.3496       	1.953640e-06	2.367281e-01	-1.923040e+00	2.159768e+00
32.3553       	1.953640e-06	2.367293e-01	-1.923041e+00	2.159770e+00
32.361        	1.953640e-06	2.367304e-01	-1.923042e+00	2.159773e+00
32.3666       	1.953640e-06	2.367316e-01	-1.923043e+00	2.159775e+00
32.3723       	1.953640e-06	2.367328e-01	-1.923044e+00	2.159777e+00
32.378        	1.953640e-06	2.367339e-01	-1.923046e+00	2.159780e+00
32.3837       	1.953640e-06	2.367351e-01	-1.923047e+00	2.159782e+00
32.3893       	1.953640e-06	2.367363e-01	-1.923048e+00	2.159784e+00
32.395        	1.953640e-06	2.367374e-01	-1.923049e+00	2.159787e+00
32.4007       	1.953640e-06	2.367386e-01	-1.923051e+00	2.159789e+00
32.4064       	1.953640e-06	2.367397e-01	-1.923052e+00	2.159792e+00
32.412        	1.953640e-06	2.367409e-01	-1.923053e+00	2.159794e+00
32.4177       	1.953640e-06	2.367421e-01	-1.923054e+00	2.159796e+00
32.4234       	1.953640e-06	2.367432e-01	-1.923056e+00	2.159799e+00
32.4291       	1.953640e-06	2.367444e-01	-1.923057e+00	2.159801e+00
32.4347       	1.953640e-06	2.367456e-01	-1.923058e+00	2.159804e+00
32.4404       	1.953640e-06	2.367467e-01	-1.923059e+00	2.159806e+00
32.4461       	1.953640e-06	2.367479e-01	-1.923061e+00	2.159809e+00
32.4518       	1.953640e-06	2.367491e-01	-1.923062e+00	2.159811e+00
32.4574       	1.953640e-06	2.367502e-01	-1.923063e+00	2.159814e+00
32.4631       	1.953640e-06	2.367514e-01	-1.923065e+00	2.159816e+00
32.4688       	1.953640e-06	2.367526e-01	-1.923066e+00	2.159819e+00
32.4745       	1.953640e-06	2.367537e-01	-1.923067e+00	2.159821e+00
32.4801       	1.953640e-06	2.367549e-01	-1.923069e+00	2.159824e+00