# Region type : surface bottom
# Faces       : 92
# Area        : 1.953640e-06
# Scale factor: 1.000000e+00
# Time        	Area	areaAverage(nusseltOneMean)	areaAverage(nusseltTwoMean)	areaAverage(nusseltTotalMean)
30            	1.953640e-06	2.226034e+00	-3.108339e-01	2.536868e+00
30.0033       	1.953640e-06	2.226035e+00	-3.108335e-01	2.536868e+00
30.0066       	1.953640e-06	2.226035e+00	-3.108332e-01	2.536868e+00
30.0099       	1.953640e-06	2.226036e+00	-3.108328e-01	2.536869e+00
30.0133       	1.953640e-06	2.226036e+00	-3.108324e-01	2.536869e+00
30.0166       	1.953640e-06	2.226037e+00	-3.108321e-01	2.536869e+00
30.0199       	1.953640e-06	2.226037e+00	-3.108317e-01	2.536869e+00
30.0232       	1.953640e-06	2.226038e+00	-3.108313e-01	2.536869e+00
30.0265       	1.953640e-06	2.226039e+00	-3.108310e-01	2.536870e+00
30.0298       	1.953640e-06	2.226039e+00	-3.108306e-01	2.536870e+00
30.0332       	1.953640e-06	2.226040e+00	-3.108303e-01	2.536870e+00
30.0365       	1.953640e-06	2.226040e+00	-3.108299e-01	2.536870e+00
30.0398       	1.953640e-06	2.226041e+00	-3.108295e-01	2.536870e+00
30.0431       	1.953640e-06	2.226041e+00	-3.108292e-01	2.536870e+00
30.0464       	1.953640e-06	2.226042e+00	-3.108288e-01	2.536871e+00
30.0497       	1.953640e-06	2.226042e+00	-3.108285e-01	2.536871e+00
30.0531       	1.953640e-06	2.226043e+00	-3.108281e-01	2.536871e+00
30.0564       	1.953640e-06	2.226043e+00	-3.108277e-01	2.536871e+00
30.0597       	1.953640e-06	2.226044e+00	-3.108274e-01	2.536871e+00
30.063        	1.953640e-06	2.226044e+00	-3.108270e-01	2.536871e+00
30.0663       	1.953640e-06	2.226045e+00	-3.108267e-01	2.536871e+00
30.0696       	1.953640e-06	2.226045e+00	-3.108263e-01	2.536872e+00
30.0729       	1.953640e-06	2.226046e+00	-3.108259e-01	2.536872e+00
30.0763       	1.953640e-06	2.226046e+00	-3.108256e-01	2.536872e+00
30.0796       	1.953640e-06	2.226047e+00	-3.108252e-01	2.536872e+00
30.0829       	1.953640e-06	2.226047e+00	-3.108249e-01	2.536872e+00
30.0862       	1.953640e-06	2.226048e+00	-3.108245e-01	2.536872e+00
30.0895       	1.953640e-06	2.226048e+00	-3.108241e-01	2.536872e+00
30.0928       	1.953640e-06	2.226049e+00	-3.108238e-01	2.536872e+00
30.0962       	1.953640e-06	2.226049e+00	-3.108234e-01	2.536873e+00
30.0995       	1.953640e-06	2.226050e+00	-3.108231e-01	2.536873e+00
30.1028       	1.953640e-06	2.226050e+00	-3.108227e-01	2.536873e+00
30.1061       	1.953640e-06	2.226050e+00	-3.108223e-01	2.536873e+00
30.1094       	1.953640e-06	2.226051e+00	-3.108220e-01	2.536873e+00
30.1127       	1.953640e-06	2.226051e+00	-3.108216e-01	2.536873e+00
30.116        	1.953640e-06	2.226052e+00	-3.108213e-01	2.536873e+00
30.1194       	1.953640e-06	2.226052e+00	-3.108209e-01	2.536873e+00
30.1227       	1.953640e-06	2.226053e+00	-3.108205e-01	2.536873e+00
30.126        	1.953640e-06	2.226053e+00	-3.108202e-01	2.536873e+00
30.1293       	1.953640e-06	2.226054e+00	-3.108198e-01	2.536873e+00
30.1326       	1.953640e-06	2.226054e+00	-3.108195e-01	2.536873e+00
30.1359       	1.953640e-06	2.226054e+00	-3.108191e-01	2.536873e+00
30.1393       	1.953640e-06	2.226055e+00	-3.108188e-01	2.536874e+00
30.1426       	1.953640e-06	2.226055e+00	-3.108184e-01	2.536874e+00
30.1459       	1.953640e-06	2.226056e+00	-3.108180e-01	2.536874e+00
30.1492       	1.953640e-06	2.226056e+00	-3.108177e-01	2.536874e+00
30.1525       	1.953640e-06	2.226056e+00	-3.108173e-01	2.536874e+00
30.1558       	1.953640e-06	2.226057e+00	-3.108170e-01	2.536874e+00
30.1592       	1.953640e-06	2.226057e+00	-3.108166e-01	2.536874e+00
30.1625       	1.953640e-06	2.226058e+00	-3.108163e-01	2.536874e+00
30.1658       	1.953640e-06	2.226058e+00	-3.108159e-01	2.536874e+00
30.1691       	1.953640e-06	2.226058e+00	-3.108155e-01	2.536874e+00
30.1724       	1.953640e-06	2.226059e+00	-3.108152e-01	2.536874e+00
30.1757       	1.953640e-06	2.226059e+00	-3.108148e-01	2.536874e+00
30.179        	1.953640e-06	2.226059e+00	-3.108145e-01	2.536874e+00
30.1824       	1.953640e-06	2.226060e+00	-3.108141e-01	2.536874e+00
30.1857       	1.953640e-06	2.226060e+00	-3.108138e-01	2.536874e+00
30.189        	1.953640e-06	2.226061e+00	-3.108134e-01	2.536874e+00
30.1923       	1.953640e-06	2.226061e+00	-3.108131e-01	2.536874e+00
30.1956       	1.953640e-06	2.226061e+00	-3.108127e-01	2.536874e+00
30.1989       	1.953640e-06	2.226062e+00	-3.108123e-01	2.536874e+00
30.2023       	1.953640e-06	2.226062e+00	-3.108120e-01	2.536874e+00
30.2056       	1.953640e-06	2.226062e+00	-3.108116e-01	2.536874e+00
30.2089       	1.953640e-06	2.226063e+00	-3.108113e-01	2.536874e+00
30.2122       	1.953640e-06	2.226063e+00	-3.108109e-01	2.536874e+00
30.2155       	1.953640e-06	2.226063e+00	-3.108106e-01	2.536874e+00
30.2188       	1.953640e-06	2.226064e+00	-3.108102e-01	2.536874e+00
30.2221       	1.953640e-06	2.226064e+00	-3.108099e-01	2.536874e+00
30.2255       	1.953640e-06	2.226064e+00	-3.108095e-01	2.536874e+00
30.2288       	1.953640e-06	2.226065e+00	-3.108092e-01	2.536874e+00
30.2321       	1.953640e-06	2.226065e+00	-3.108088e-01	2.536874e+00
30.2354       	1.953640e-06	2.226065e+00	-3.108084e-01	2.536874e+00
30.2387       	1.953640e-06	2.226065e+00	-3.108081e-01	2.536874e+00
30.242        	1.953640e-06	2.226066e+00	-3.108077e-01	2.536873e+00
30.2453       	1.953640e-06	2.226066e+00	-3.108074e-01	2.536873e+00
30.2487       	1.953640e-06	2.226066e+00	-3.108070e-01	2.536873e+00
30.252        	1.953640e-06	2.226067e+00	-3.108067e-01	2.536873e+00
30.2553       	1.953640e-06	2.226067e+00	-3.108063e-01	2.536873e+00
30.2586       	1.953640e-06	2.226067e+00	-3.108060e-01	2.536873e+00
30.2619       	1.953640e-06	2.226067e+00	-3.108056e-01	2.536873e+00
30.2652       	1.953640e-06	2.226068e+00	-3.108053e-01	2.536873e+00
30.2685       	1.953640e-06	2.226068e+00	-3.108049e-01	2.536873e+00
30.2719       	1.953640e-06	2.226068e+00	-3.108046e-01	2.536873e+00
30.2752       	1.953640e-06	2.226069e+00	-3.108042e-01	2.536873e+00
30.2785       	1.953640e-06	2.226069e+00	-3.108039e-01	2.536873e+00
30.2818       	1.953640e-06	2.226069e+00	-3.108035e-01	2.536873e+00
30.2851       	1.953640e-06	2.226069e+00	-3.108032e-01	2.536872e+00
30.2884       	1.953640e-06	2.226070e+00	-3.108028e-01	2.536872e+00
30.2917       	1.953640e-06	2.226070e+00	-3.108025e-01	2.536872e+00
30.295        	1.953640e-06	2.226070e+00	-3.108021e-01	2.536872e+00
30.2984       	1.953640e-06	2.226070e+00	-3.108018e-01	2.536872e+00
30.3017       	1.953640e-06	2.226070e+00	-3.108014e-01	2.536872e+00
30.305        	1.953640e-06	2.226071e+00	-3.108011e-01	2.536872e+00
30.3083       	1.953640e-06	2.226071e+00	-3.108007e-01	2.536872e+00
30.3116       	1.953640e-06	2.226071e+00	-3.108004e-01	2.536872e+00
30.3149       	1.953640e-06	2.226071e+00	-3.108001e-01	2.536871e+00
30.3182       	1.953640e-06	2.226072e+00	-3.107997e-01	2.536871e+00
30.3216       	1.953640e-06	2.226072e+00	-3.107994e-01	2.536871e+00
30.3249       	1.953640e-06	2.226072e+00	-3.107990e-01	2.536871e+00
30.3282       	1.953640e-06	2.226072e+00	-3.107987e-01	2.536871e+00
30.3315       	1.953640e-06	2.226072e+00	-3.107983e-01	2.536871e+00
30.3348       	1.953640e-06	2.226073e+00	-3.107980e-01	2.536871e+00
30.3381       	1.953640e-06	2.226073e+00	-3.107976e-01	2.536870e+00
30.3414       	1.953640e-06	2.226073e+00	-3.107973e-01	2.536870e+00
30.3447       	1.953640e-06	2.226073e+00	-3.107969e-01	2.536870e+00
30.3481       	1.953640e-06	2.226073e+00	-3.107966e-01	2.536870e+00
30.3514       	1.953640e-06	2.226073e+00	-3.107963e-01	2.536870e+00
30.3547       	1.953640e-06	2.226074e+00	-3.107959e-01	2.536869e+00
30.358        	1.953640e-06	2.226074e+00	-3.107956e-01	2.536869e+00
30.3613       	1.953640e-06	2.226074e+00	-3.107952e-01	2.536869e+00
30.3646       	1.953640e-06	2.226074e+00	-3.107949e-01	2.536869e+00
30.3679       	1.953640e-06	2.226074e+00	-3.107945e-01	2.536869e+00
30.3713       	1.953640e-06	2.226074e+00	-3.107942e-01	2.536869e+00
30.3746       	1.953640e-06	2.226075e+00	-3.107938e-01	2.536868e+00
30.3779       	1.953640e-06	2.226075e+00	-3.107935e-01	2.536868e+00
30.3812       	1.953640e-06	2.226075e+00	-3.107932e-01	2.536868e+00
30.3845       	1.953640e-06	2.226075e+00	-3.107928e-01	2.536868e+00
30.3878       	1.953640e-06	2.226075e+00	-3.107925e-01	2.536868e+00
30.3911       	1.953640e-06	2.226075e+00	-3.107921e-01	2.536867e+00
30.3944       	1.953640e-06	2.226075e+00	-3.107918e-01	2.536867e+00
30.3978       	1.953640e-06	2.226075e+00	-3.107915e-01	2.536867e+00
30.4011       	1.953640e-06	2.226076e+00	-3.107911e-01	2.536867e+00
30.4044       	1.953640e-06	2.226076e+00	-3.107908e-01	2.536866e+00
30.4077       	1.953640e-06	2.226076e+00	-3.107904e-01	2.536866e+00
30.411        	1.953640e-06	2.226076e+00	-3.107901e-01	2.536866e+00
30.4143       	1.953640e-06	2.226076e+00	-3.107898e-01	2.536866e+00
30.4176       	1.953640e-06	2.226076e+00	-3.107894e-01	2.536865e+00
30.421        	1.953640e-06	2.226076e+00	-3.107891e-01	2.536865e+00
30.4243       	1.953640e-06	2.226076e+00	-3.107887e-01	2.536865e+00
30.4276       	1.953640e-06	2.226076e+00	-3.107884e-01	2.536865e+00
30.4309       	1.953640e-06	2.226076e+00	-3.107881e-01	2.536864e+00
30.4342       	1.953640e-06	2.226076e+00	-3.107877e-01	2.536864e+00
30.4375       	1.953640e-06	2.226077e+00	-3.107874e-01	2.536864e+00
30.4408       	1.953640e-06	2.226077e+00	-3.107871e-01	2.536864e+00
30.4441       	1.953640e-06	2.226077e+00	-3.107867e-01	2.536863e+00
30.4475       	1.953640e-06	2.226077e+00	-3.107864e-01	2.536863e+00
30.4508       	1.953640e-06	2.226077e+00	-3.107860e-01	2.536863e+00
30.4541       	1.953640e-06	2.226077e+00	-3.107857e-01	2.536863e+00
30.4574       	1.953640e-06	2.226077e+00	-3.107854e-01	2.536862e+00
30.4607       	1.953640e-06	2.226077e+00	-3.107850e-01	2.536862e+00
30.464        	1.953640e-06	2.226077e+00	-3.107847e-01	2.536862e+00
30.4673       	1.953640e-06	2.226077e+00	-3.107844e-01	2.536861e+00
30.4707       	1.953640e-06	2.226077e+00	-3.107840e-01	2.536861e+00
30.474        	1.953640e-06	2.226077e+00	-3.107837e-01	2.536861e+00
30.4773       	1.953640e-06	2.226077e+00	-3.107834e-01	2.536861e+00
30.4806       	1.953640e-06	2.226077e+00	-3.107830e-01	2.536860e+00
30.4839       	1.953640e-06	2.226077e+00	-3.107827e-01	2.536860e+00
30.4872       	1.953640e-06	2.226077e+00	-3.107824e-01	2.536860e+00
30.4905       	1.953640e-06	2.226077e+00	-3.107820e-01	2.536859e+00
30.4938       	1.953640e-06	2.226077e+00	-3.107817e-01	2.536859e+00
30.4972       	1.953640e-06	2.226077e+00	-3.107814e-01	2.536859e+00
30.5005       	1.953640e-06	2.226077e+00	-3.107810e-01	2.536858e+00
30.5038       	1.953640e-06	2.226077e+00	-3.107807e-01	2.536858e+00
30.5071       	1.953640e-06	2.226077e+00	-3.107804e-01	2.536858e+00
30.5104       	1.953640e-06	2.226077e+00	-3.107801e-01	2.536857e+00
30.5137       	1.953640e-06	2.226077e+00	-3.107797e-01	2.536857e+00
30.517        	1.953640e-06	2.226077e+00	-3.107794e-01	2.536857e+00
30.5203       	1.953640e-06	2.226077e+00	-3.107791e-01	2.536856e+00
30.5237       	1.953640e-06	2.226077e+00	-3.107787e-01	2.536856e+00
30.527        	1.953640e-06	2.226077e+00	-3.107784e-01	2.536856e+00
30.5303       	1.953640e-06	2.226077e+00	-3.107781e-01	2.536855e+00
30.5336       	1.953640e-06	2.226077e+00	-3.107778e-01	2.536855e+00
30.5369       	1.953640e-06	2.226077e+00	-3.107774e-01	2.536855e+00
30.5402       	1.953640e-06	2.226077e+00	-3.107771e-01	2.536854e+00
30.5435       	1.953640e-06	2.226077e+00	-3.107768e-01	2.536854e+00
30.5468       	1.953640e-06	2.226077e+00	-3.107765e-01	2.536853e+00
30.5501       	1.953640e-06	2.226077e+00	-3.107761e-01	2.536853e+00
30.5535       	1.953640e-06	2.226077e+00	-3.107758e-01	2.536853e+00
30.5568       	1.953640e-06	2.226077e+00	-3.107755e-01	2.536852e+00
30.5601       	1.953640e-06	2.226077e+00	-3.107752e-01	2.536852e+00
30.5634       	1.953640e-06	2.226077e+00	-3.107748e-01	2.536851e+00
30.5667       	1.953640e-06	2.226077e+00	-3.107745e-01	2.536851e+00
30.57         	1.953640e-06	2.226077e+00	-3.107742e-01	2.536851e+00
30.5733       	1.953640e-06	2.226076e+00	-3.107739e-01	2.536850e+00
30.5766       	1.953640e-06	2.226076e+00	-3.107735e-01	2.536850e+00
30.5799       	1.953640e-06	2.226076e+00	-3.107732e-01	2.536850e+00
30.5833       	1.953640e-06	2.226076e+00	-3.107729e-01	2.536849e+00
30.5866       	1.953640e-06	2.226076e+00	-3.107726e-01	2.536849e+00
30.5899       	1.953640e-06	2.226076e+00	-3.107723e-01	2.536848e+00
30.5932       	1.953640e-06	2.226076e+00	-3.107719e-01	2.536848e+00
30.5965       	1.953640e-06	2.226076e+00	-3.107716e-01	2.536847e+00
30.5998       	1.953640e-06	2.226076e+00	-3.107713e-01	2.536847e+00
30.6031       	1.953640e-06	2.226076e+00	-3.107710e-01	2.536847e+00
30.6064       	1.953640e-06	2.226076e+00	-3.107707e-01	2.536846e+00
30.6097       	1.953640e-06	2.226075e+00	-3.107703e-01	2.536846e+00
30.6131       	1.953640e-06	2.226075e+00	-3.107700e-01	2.536845e+00
30.6164       	1.953640e-06	2.226075e+00	-3.107697e-01	2.536845e+00
30.6197       	1.953640e-06	2.226075e+00	-3.107694e-01	2.536844e+00
30.623        	1.953640e-06	2.226075e+00	-3.107691e-01	2.536844e+00
30.6263       	1.953640e-06	2.226075e+00	-3.107687e-01	2.536844e+00
30.6296       	1.953640e-06	2.226075e+00	-3.107684e-01	2.536843e+00
30.6329       	1.953640e-06	2.226074e+00	-3.107681e-01	2.536843e+00
30.6362       	1.953640e-06	2.226074e+00	-3.107678e-01	2.536842e+00
30.6395       	1.953640e-06	2.226074e+00	-3.107675e-01	2.536842e+00
30.6429       	1.953640e-06	2.226074e+00	-3.107672e-01	2.536841e+00
30.6462       	1.953640e-06	2.226074e+00	-3.107669e-01	2.536841e+00
30.6495       	1.953640e-06	2.226074e+00	-3.107665e-01	2.536840e+00
30.6528       	1.953640e-06	2.226074e+00	-3.107662e-01	2.536840e+00
30.6561       	1.953640e-06	2.226073e+00	-3.107659e-01	2.536839e+00
30.6594       	1.953640e-06	2.226073e+00	-3.107656e-01	2.536839e+00
30.6627       	1.953640e-06	2.226073e+00	-3.107653e-01	2.536838e+00
30.666        	1.953640e-06	2.226073e+00	-3.107650e-01	2.536838e+00
30.6693       	1.953640e-06	2.226073e+00	-3.107647e-01	2.536837e+00
30.6726       	1.953640e-06	2.226073e+00	-3.107643e-01	2.536837e+00
30.676        	1.953640e-06	2.226072e+00	-3.107640e-01	2.536836e+00
30.6793       	1.953640e-06	2.226072e+00	-3.107637e-01	2.536836e+00
30.6826       	1.953640e-06	2.226072e+00	-3.107634e-01	2.536835e+00
30.6859       	1.953640e-06	2.226072e+00	-3.107631e-01	2.536835e+00
30.6892       	1.953640e-06	2.226072e+00	-3.107628e-01	2.536834e+00
30.6925       	1.953640e-06	2.226071e+00	-3.107625e-01	2.536834e+00
30.6958       	1.953640e-06	2.226071e+00	-3.107622e-01	2.536833e+00
30.6991       	1.953640e-06	2.226071e+00	-3.107619e-01	2.536833e+00
30.7024       	1.953640e-06	2.226071e+00	-3.107616e-01	2.536832e+00
30.7058       	1.953640e-06	2.226071e+00	-3.107613e-01	2.536832e+00
30.7091       	1.953640e-06	2.226070e+00	-3.107609e-01	2.536831e+00
30.7124       	1.953640e-06	2.226070e+00	-3.107606e-01	2.536831e+00
30.7157       	1.953640e-06	2.226070e+00	-3.107603e-01	2.536830e+00
30.719        	1.953640e-06	2.226070e+00	-3.107600e-01	2.536830e+00
30.7223       	1.953640e-06	2.226069e+00	-3.107597e-01	2.536829e+00
30.7256       	1.953640e-06	2.226069e+00	-3.107594e-01	2.536829e+00
30.7289       	1.953640e-06	2.226069e+00	-3.107591e-01	2.536828e+00
30.7322       	1.953640e-06	2.226069e+00	-3.107588e-01	2.536828e+00
30.7356       	1.953640e-06	2.226068e+00	-3.107585e-01	2.536827e+00
30.7389       	1.953640e-06	2.226068e+00	-3.107582e-01	2.536826e+00
30.7422       	1.953640e-06	2.226068e+00	-3.107579e-01	2.536826e+00
30.7455       	1.953640e-06	2.226068e+00	-3.107576e-01	2.536825e+00
30.7488       	1.953640e-06	2.226067e+00	-3.107573e-01	2.536825e+00
30.7521       	1.953640e-06	2.226067e+00	-3.107570e-01	2.536824e+00
30.7554       	1.953640e-06	2.226067e+00	-3.107567e-01	2.536824e+00
30.7587       	1.953640e-06	2.226067e+00	-3.107564e-01	2.536823e+00
30.762        	1.953640e-06	2.226066e+00	-3.107561e-01	2.536822e+00
30.7654       	1.953640e-06	2.226066e+00	-3.107558e-01	2.536822e+00
30.7687       	1.953640e-06	2.226066e+00	-3.107555e-01	2.536821e+00
30.772        	1.953640e-06	2.226066e+00	-3.107552e-01	2.536821e+00
30.7753       	1.953640e-06	2.226065e+00	-3.107549e-01	2.536820e+00
30.7786       	1.953640e-06	2.226065e+00	-3.107546e-01	2.536820e+00
30.7819       	1.953640e-06	2.226065e+00	-3.107543e-01	2.536819e+00
30.7852       	1.953640e-06	2.226064e+00	-3.107540e-01	2.536818e+00
30.7885       	1.953640e-06	2.226064e+00	-3.107537e-01	2.536818e+00
30.7918       	1.953640e-06	2.226064e+00	-3.107534e-01	2.536817e+00
30.7952       	1.953640e-06	2.226063e+00	-3.107531e-01	2.536817e+00
30.7985       	1.953640e-06	2.226063e+00	-3.107528e-01	2.536816e+00
30.8018       	1.953640e-06	2.226063e+00	-3.107525e-01	2.536815e+00
30.8051       	1.953640e-06	2.226063e+00	-3.107522e-01	2.536815e+00
30.8084       	1.953640e-06	2.226062e+00	-3.107519e-01	2.536814e+00
30.8117       	1.953640e-06	2.226062e+00	-3.107516e-01	2.536814e+00
30.815        	1.953640e-06	2.226062e+00	-3.107514e-01	2.536813e+00
30.8183       	1.953640e-06	2.226061e+00	-3.107511e-01	2.536812e+00
30.8216       	1.953640e-06	2.226061e+00	-3.107508e-01	2.536812e+00
30.825        	1.953640e-06	2.226061e+00	-3.107505e-01	2.536811e+00
30.8283       	1.953640e-06	2.226060e+00	-3.107502e-01	2.536810e+00
30.8316       	1.953640e-06	2.226060e+00	-3.107499e-01	2.536810e+00
30.8349       	1.953640e-06	2.226060e+00	-3.107496e-01	2.536809e+00
30.8382       	1.953640e-06	2.226059e+00	-3.107493e-01	2.536809e+00
30.8415       	1.953640e-06	2.226059e+00	-3.107490e-01	2.536808e+00
30.8448       	1.953640e-06	2.226059e+00	-3.107487e-01	2.536807e+00
30.8481       	1.953640e-06	2.226058e+00	-3.107484e-01	2.536807e+00
30.8514       	1.953640e-06	2.226058e+00	-3.107482e-01	2.536806e+00
30.8547       	1.953640e-06	2.226057e+00	-3.107479e-01	2.536805e+00
30.858        	1.953640e-06	2.226057e+00	-3.107476e-01	2.536805e+00
30.8613       	1.953640e-06	2.226057e+00	-3.107473e-01	2.536804e+00
30.8647       	1.953640e-06	2.226056e+00	-3.107470e-01	2.536803e+00
30.868        	1.953640e-06	2.226056e+00	-3.107467e-01	2.536803e+00
30.8713       	1.953640e-06	2.226056e+00	-3.107464e-01	2.536802e+00
30.8746       	1.953640e-06	2.226055e+00	-3.107462e-01	2.536801e+00
30.8779       	1.953640e-06	2.226055e+00	-3.107459e-01	2.536801e+00
30.8812       	1.953640e-06	2.226054e+00	-3.107456e-01	2.536800e+00
30.8845       	1.953640e-06	2.226054e+00	-3.107453e-01	2.536799e+00
30.8878       	1.953640e-06	2.226054e+00	-3.107450e-01	2.536799e+00
30.8911       	1.953640e-06	2.226053e+00	-3.107447e-01	2.536798e+00
30.8944       	1.953640e-06	2.226053e+00	-3.107445e-01	2.536797e+00
30.8977       	1.953640e-06	2.226052e+00	-3.107442e-01	2.536797e+00
30.901        	1.953640e-06	2.226052e+00	-3.107439e-01	2.536796e+00
30.9044       	1.953640e-06	2.226052e+00	-3.107436e-01	2.536795e+00
30.9077       	1.953640e-06	2.226051e+00	-3.107433e-01	2.536795e+00
30.911        	1.953640e-06	2.226051e+00	-3.107431e-01	2.536794e+00
30.9143       	1.953640e-06	2.226050e+00	-3.107428e-01	2.536793e+00
30.9176       	1.953640e-06	2.226050e+00	-3.107425e-01	2.536792e+00
30.9209       	1.953640e-06	2.226050e+00	-3.107422e-01	2.536792e+00
30.9242       	1.953640e-06	2.226049e+00	-3.107419e-01	2.536791e+00
30.9275       	1.953640e-06	2.226049e+00	-3.107417e-01	2.536790e+00
30.9308       	1.953640e-06	2.226048e+00	-3.107414e-01	2.536790e+00
30.9341       	1.953640e-06	2.226048e+00	-3.107411e-01	2.536789e+00
30.9374       	1.953640e-06	2.226047e+00	-3.107408e-01	2.536788e+00
30.9407       	1.953640e-06	2.226047e+00	-3.107406e-01	2.536788e+00
30.9441       	1.953640e-06	2.226047e+00	-3.107403e-01	2.536787e+00
30.9474       	1.953640e-06	2.226046e+00	-3.107400e-01	2.536786e+00
30.9507       	1.953640e-06	2.226046e+00	-3.107397e-01	2.536785e+00
30.954        	1.953640e-06	2.226045e+00	-3.107395e-01	2.536785e+00
30.9573       	1.953640e-06	2.226045e+00	-3.107392e-01	2.536784e+00
30.9606       	1.953640e-06	2.226044e+00	-3.107389e-01	2.536783e+00
30.9639       	1.953640e-06	2.226044e+00	-3.107386e-01	2.536782e+00
30.9672       	1.953640e-06	2.226043e+00	-3.107384e-01	2.536782e+00
30.9705       	1.953640e-06	2.226043e+00	-3.107381e-01	2.536781e+00
30.9738       	1.953640e-06	2.226042e+00	-3.107378e-01	2.536780e+00
30.9771       	1.953640e-06	2.226042e+00	-3.107376e-01	2.536779e+00
30.9804       	1.953640e-06	2.226041e+00	-3.107373e-01	2.536779e+00
30.9838       	1.953640e-06	2.226041e+00	-3.107370e-01	2.536778e+00
30.9871       	1.953640e-06	2.226040e+00	-3.107368e-01	2.536777e+00
30.9904       	1.953640e-06	2.226040e+00	-3.107365e-01	2.536776e+00
30.9937       	1.953640e-06	2.226039e+00	-3.107362e-01	2.536776e+00
30.997        	1.953640e-06	2.226039e+00	-3.107360e-01	2.536775e+00
31.0003       	1.953640e-06	2.226039e+00	-3.107357e-01	2.536774e+00
31.0036       	1.953640e-06	2.226038e+00	-3.107354e-01	2.536773e+00
31.0069       	1.953640e-06	2.226038e+00	-3.107352e-01	2.536773e+00
31.0102       	1.953640e-06	2.226037e+00	-3.107349e-01	2.536772e+00
31.0135       	1.953640e-06	2.226036e+00	-3.107346e-01	2.536771e+00
31.0168       	1.953640e-06	2.226036e+00	-3.107344e-01	2.536770e+00
31.0201       	1.953640e-06	2.226035e+00	-3.107341e-01	2.536770e+00
31.0235       	1.953640e-06	2.226035e+00	-3.107338e-01	2.536769e+00
31.0268       	1.953640e-06	2.226034e+00	-3.107336e-01	2.536768e+00
31.0301       	1.953640e-06	2.226034e+00	-3.107333e-01	2.536767e+00
31.0334       	1.953640e-06	2.226033e+00	-3.107330e-01	2.536766e+00
31.0367       	1.953640e-06	2.226033e+00	-3.107328e-01	2.536766e+00
31.04         	1.953640e-06	2.226032e+00	-3.107325e-01	2.536765e+00
31.0433       	1.953640e-06	2.226032e+00	-3.107323e-01	2.536764e+00
31.0466       	1.953640e-06	2.226031e+00	-3.107320e-01	2.536763e+00
31.0499       	1.953640e-06	2.226031e+00	-3.107317e-01	2.536762e+00
31.0532       	1.953640e-06	2.226030e+00	-3.107315e-01	2.536762e+00
31.0565       	1.953640e-06	2.226030e+00	-3.107312e-01	2.536761e+00
31.0598       	1.953640e-06	2.226029e+00	-3.107310e-01	2.536760e+00
31.0632       	1.953640e-06	2.226029e+00	-3.107307e-01	2.536759e+00
31.0665       	1.953640e-06	2.226028e+00	-3.107305e-01	2.536758e+00
31.0698       	1.953640e-06	2.226027e+00	-3.107302e-01	2.536758e+00
31.0731       	1.953640e-06	2.226027e+00	-3.107299e-01	2.536757e+00
31.0764       	1.953640e-06	2.226026e+00	-3.107297e-01	2.536756e+00
31.0797       	1.953640e-06	2.226026e+00	-3.107294e-01	2.536755e+00
31.083        	1.953640e-06	2.226025e+00	-3.107292e-01	2.536754e+00
31.0863       	1.953640e-06	2.226025e+00	-3.107289e-01	2.536754e+00
31.0896       	1.953640e-06	2.226024e+00	-3.107287e-01	2.536753e+00
31.0929       	1.953640e-06	2.226024e+00	-3.107284e-01	2.536752e+00
31.0962       	1.953640e-06	2.226023e+00	-3.107282e-01	2.536751e+00
31.0995       	1.953640e-06	2.226022e+00	-3.107279e-01	2.536750e+00
31.1029       	1.953640e-06	2.226022e+00	-3.107277e-01	2.536749e+00
31.1062       	1.953640e-06	2.226021e+00	-3.107274e-01	2.536749e+00
31.1095       	1.953640e-06	2.226021e+00	-3.107272e-01	2.536748e+00
31.1128       	1.953640e-06	2.226020e+00	-3.107269e-01	2.536747e+00
31.1161       	1.953640e-06	2.226019e+00	-3.107267e-01	2.536746e+00
31.1194       	1.953640e-06	2.226019e+00	-3.107264e-01	2.536745e+00
31.1227       	1.953640e-06	2.226018e+00	-3.107262e-01	2.536744e+00
31.126        	1.953640e-06	2.226018e+00	-3.107259e-01	2.536744e+00
31.1293       	1.953640e-06	2.226017e+00	-3.107257e-01	2.536743e+00
31.1326       	1.953640e-06	2.226016e+00	-3.107254e-01	2.536742e+00
31.1359       	1.953640e-06	2.226016e+00	-3.107252e-01	2.536741e+00
31.1392       	1.953640e-06	2.226015e+00	-3.107249e-01	2.536740e+00
31.1426       	1.953640e-06	2.226015e+00	-3.107247e-01	2.536739e+00
31.1459       	1.953640e-06	2.226014e+00	-3.107244e-01	2.536738e+00
31.1492       	1.953640e-06	2.226013e+00	-3.107242e-01	2.536738e+00
31.1525       	1.953640e-06	2.226013e+00	-3.107240e-01	2.536737e+00
31.1558       	1.953640e-06	2.226012e+00	-3.107237e-01	2.536736e+00
31.1591       	1.953640e-06	2.226012e+00	-3.107235e-01	2.536735e+00
31.1624       	1.953640e-06	2.226011e+00	-3.107232e-01	2.536734e+00
31.1657       	1.953640e-06	2.226010e+00	-3.107230e-01	2.536733e+00
31.169        	1.953640e-06	2.226010e+00	-3.107227e-01	2.536732e+00
31.1723       	1.953640e-06	2.226009e+00	-3.107225e-01	2.536732e+00
31.1756       	1.953640e-06	2.226008e+00	-3.107223e-01	2.536731e+00
31.1789       	1.953640e-06	2.226008e+00	-3.107220e-01	2.536730e+00
31.1823       	1.953640e-06	2.226007e+00	-3.107218e-01	2.536729e+00
31.1856       	1.953640e-06	2.226006e+00	-3.107216e-01	2.536728e+00
31.1889       	1.953640e-06	2.226006e+00	-3.107213e-01	2.536727e+00
31.1922       	1.953640e-06	2.226005e+00	-3.107211e-01	2.536726e+00
31.1955       	1.953640e-06	2.226005e+00	-3.107208e-01	2.536725e+00
31.1988       	1.953640e-06	2.226004e+00	-3.107206e-01	2.536724e+00
31.2021       	1.953640e-06	2.226003e+00	-3.107204e-01	2.536724e+00
31.2054       	1.953640e-06	2.226003e+00	-3.107201e-01	2.536723e+00
31.2087       	1.953640e-06	2.226002e+00	-3.107199e-01	2.536722e+00
31.212        	1.953640e-06	2.226001e+00	-3.107197e-01	2.536721e+00
31.2153       	1.953640e-06	2.226001e+00	-3.107194e-01	2.536720e+00
31.2186       	1.953640e-06	2.226000e+00	-3.107192e-01	2.536719e+00
31.222        	1.953640e-06	2.225999e+00	-3.107190e-01	2.536718e+00
31.2253       	1.953640e-06	2.225999e+00	-3.107187e-01	2.536717e+00
31.2286       	1.953640e-06	2.225998e+00	-3.107185e-01	2.536716e+00
31.2319       	1.953640e-06	2.225997e+00	-3.107183e-01	2.536715e+00
31.2352       	1.953640e-06	2.225997e+00	-3.107180e-01	2.536715e+00
31.2385       	1.953640e-06	2.225996e+00	-3.107178e-01	2.536714e+00
31.2418       	1.953640e-06	2.225995e+00	-3.107176e-01	2.536713e+00
31.2451       	1.953640e-06	2.225994e+00	-3.107173e-01	2.536712e+00
31.2484       	1.953640e-06	2.225994e+00	-3.107171e-01	2.536711e+00
31.2517       	1.953640e-06	2.225993e+00	-3.107169e-01	2.536710e+00
31.255        	1.953640e-06	2.225992e+00	-3.107167e-01	2.536709e+00
31.2583       	1.953640e-06	2.225992e+00	-3.107164e-01	2.536708e+00
31.2616       	1.953640e-06	2.225991e+00	-3.107162e-01	2.536707e+00
31.2649       	1.953640e-06	2.225990e+00	-3.107160e-01	2.536706e+00
31.2682       	1.953640e-06	2.225990e+00	-3.107158e-01	2.536705e+00
31.2715       	1.953640e-06	2.225989e+00	-3.107155e-01	2.536704e+00
31.2748       	1.953640e-06	2.225988e+00	-3.107153e-01	2.536704e+00
31.2782       	1.953640e-06	2.225988e+00	-3.107151e-01	2.536703e+00
31.2815       	1.953640e-06	2.225987e+00	-3.107149e-01	2.536702e+00
31.2848       	1.953640e-06	2.225986e+00	-3.107146e-01	2.536701e+00
31.2881       	1.953640e-06	2.225985e+00	-3.107144e-01	2.536700e+00
31.2914       	1.953640e-06	2.225985e+00	-3.107142e-01	2.536699e+00
31.2947       	1.953640e-06	2.225984e+00	-3.107140e-01	2.536698e+00
31.298        	1.953640e-06	2.225983e+00	-3.107137e-01	2.536697e+00
31.3013       	1.953640e-06	2.225982e+00	-3.107135e-01	2.536696e+00
31.3046       	1.953640e-06	2.225982e+00	-3.107133e-01	2.536695e+00
31.3079       	1.953640e-06	2.225981e+00	-3.107131e-01	2.536694e+00
31.3112       	1.953640e-06	2.225980e+00	-3.107129e-01	2.536693e+00
31.3145       	1.953640e-06	2.225980e+00	-3.107127e-01	2.536692e+00
31.3178       	1.953640e-06	2.225979e+00	-3.107124e-01	2.536691e+00
31.3211       	1.953640e-06	2.225978e+00	-3.107122e-01	2.536690e+00
31.3244       	1.953640e-06	2.225977e+00	-3.107120e-01	2.536689e+00
31.3277       	1.953640e-06	2.225977e+00	-3.107118e-01	2.536688e+00
31.331        	1.953640e-06	2.225976e+00	-3.107116e-01	2.536687e+00
31.3343       	1.953640e-06	2.225975e+00	-3.107114e-01	2.536686e+00
31.3377       	1.953640e-06	2.225974e+00	-3.107111e-01	2.536686e+00
31.341        	1.953640e-06	2.225974e+00	-3.107109e-01	2.536685e+00
31.3443       	1.953640e-06	2.225973e+00	-3.107107e-01	2.536684e+00
31.3476       	1.953640e-06	2.225972e+00	-3.107105e-01	2.536683e+00
31.3509       	1.953640e-06	2.225971e+00	-3.107103e-01	2.536682e+00
31.3542       	1.953640e-06	2.225971e+00	-3.107101e-01	2.536681e+00
31.3575       	1.953640e-06	2.225970e+00	-3.107099e-01	2.536680e+00
31.3608       	1.953640e-06	2.225969e+00	-3.107097e-01	2.536679e+00
31.3641       	1.953640e-06	2.225968e+00	-3.107094e-01	2.536678e+00
31.3674       	1.953640e-06	2.225968e+00	-3.107092e-01	2.536677e+00
31.3707       	1.953640e-06	2.225967e+00	-3.107090e-01	2.536676e+00
31.374        	1.953640e-06	2.225966e+00	-3.107088e-01	2.536675e+00
31.3773       	1.953640e-06	2.225965e+00	-3.107086e-01	2.536674e+00
31.3806       	1.953640e-06	2.225964e+00	-3.107084e-01	2.536673e+00
31.3839       	1.953640e-06	2.225964e+00	-3.107082e-01	2.536672e+00
31.3872       	1.953640e-06	2.225963e+00	-3.107080e-01	2.536671e+00
31.3905       	1.953640e-06	2.225962e+00	-3.107078e-01	2.536670e+00
31.3938       	1.953640e-06	2.225961e+00	-3.107076e-01	2.536669e+00
31.3971       	1.953640e-06	2.225961e+00	-3.107074e-01	2.536668e+00
31.4005       	1.953640e-06	2.225960e+00	-3.107072e-01	2.536667e+00
31.4038       	1.953640e-06	2.225959e+00	-3.107070e-01	2.536666e+00
31.4071       	1.953640e-06	2.225958e+00	-3.107068e-01	2.536665e+00
31.4104       	1.953640e-06	2.225957e+00	-3.107065e-01	2.536664e+00
31.4137       	1.953640e-06	2.225957e+00	-3.107063e-01	2.536663e+00
31.417        	1.953640e-06	2.225956e+00	-3.107061e-01	2.536662e+00
31.4203       	1.953640e-06	2.225955e+00	-3.107059e-01	2.536661e+00
31.4236       	1.953640e-06	2.225954e+00	-3.107057e-01	2.536660e+00
31.4269       	1.953640e-06	2.225953e+00	-3.107055e-01	2.536659e+00
31.4302       	1.953640e-06	2.225953e+00	-3.107053e-01	2.536658e+00
31.4335       	1.953640e-06	2.225952e+00	-3.107051e-01	2.536657e+00
31.4368       	1.953640e-06	2.225951e+00	-3.107049e-01	2.536656e+00
31.4401       	1.953640e-06	2.225950e+00	-3.107047e-01	2.536655e+00
31.4434       	1.953640e-06	2.225949e+00	-3.107045e-01	2.536654e+00
31.4467       	1.953640e-06	2.225949e+00	-3.107043e-01	2.536653e+00